128  
1    

1    
  0.0000000000000000   0.0070710678118655   0.0070710678118655
  -0.0014281900   -0.0862271700   -0.0862229200
   0.0013750800    0.0022260800    0.0022287700
   0.0000078800    0.0001412800    0.0001445900
  -0.0013443000    0.0021809500    0.0021835900
   0.0004273400   -0.0022522300    0.0004214400
  -0.0001468500    0.0002478300    0.0001760500
   0.0001446800    0.0001866400    0.0002430400
  -0.0004335800    0.0004041800   -0.0022786600
   0.0002039300   -0.0014920300   -0.0000601400
   0.0000036400    0.0003910800    0.0003901800
  -0.0002068800   -0.0000674400   -0.0014968700
   0.0000041300    0.0003878100    0.0003914400
   0.0017833000   -0.0036263000    0.0017769300
  -0.0018011600    0.0017720900   -0.0036241100
   0.0000956300    0.0001348300    0.0002968500
  -0.0000949600    0.0002929000    0.0001296500
   0.0004319800    0.0004238200   -0.0022529300
  -0.0001424900    0.0001787200    0.0002466100
   0.0001485200    0.0002440100    0.0001849200
  -0.0004305900   -0.0022760600    0.0004035800
   0.0003443300   -0.0001446700   -0.0001504200
  -0.0000008700    0.0000782400    0.0000722700
  -0.0003563200   -0.0001509400   -0.0001573200
   0.0000012600    0.0001674300    0.0001614300
   0.0003956000   -0.0000017100   -0.0001633000
  -0.0003957200   -0.0001739300   -0.0000092700
  -0.0000015700    0.0000832100    0.0001147200
   0.0000079900    0.0001098300    0.0000819700
  -0.0000036300   -0.0000177900   -0.0000172100
   0.0000035200    0.0000635700    0.0001645600
  -0.0000002500    0.0000874900    0.0000876100
   0.0000036000    0.0001650300    0.0000606800
   0.0002072500   -0.0000605200   -0.0014946000
   0.0000054000    0.0003908600    0.0003885900
  -0.0002052200   -0.0014966900   -0.0000671900
   0.0000061300    0.0003918400    0.0003888400
   0.0003936700   -0.0001593100   -0.0000071300
  -0.0003986800   -0.0000044900   -0.0001775600
  -0.0000036600    0.0001206700    0.0000799500
   0.0000071400    0.0000857400    0.0001060000
  -0.0000014900   -0.0002688300   -0.0002711600
   0.0000230200    0.0000952100    0.0000931900
   0.0000035200    0.0000856600    0.0000842900
  -0.0000096700    0.0000947800    0.0000904300
   0.0004476100   -0.0001118600   -0.0000534400
  -0.0000074100    0.0000997500    0.0000928000
   0.0000135800    0.0001013900    0.0000963300
  -0.0004440300   -0.0000563400   -0.0001274600
   0.0017816200    0.0017727900   -0.0036234500
  -0.0018030700   -0.0036271500    0.0017754200
   0.0000939200    0.0002934400    0.0001395800
  -0.0000968300    0.0001250200    0.0002978900
  -0.0000095700   -0.0000186600   -0.0000174600
  -0.0000023500    0.0001648600    0.0000648000
  -0.0000048500    0.0000888200    0.0000891200
  -0.0000013600    0.0000610300    0.0001652000
   0.0004438100   -0.0000554900   -0.0001099000
  -0.0000107300    0.0000912600    0.0001021200
   0.0000093700    0.0000952400    0.0001029900
  -0.0004475000   -0.0001286300   -0.0000559200
   0.0002443600   -0.0001500500   -0.0001453200
  -0.0000012300    0.0001622600    0.0001677800
  -0.0002585300   -0.0001559400   -0.0001499700
   0.0000002900    0.0000732500    0.0000786700
   0.0299722000    0.0364391300    0.0364415900
  -0.0005567200    0.0000423600    0.0000427100
   0.0005416300    0.0000250000    0.0000268300
  -0.0287583700    0.0355533900    0.0355544600
  -0.0003221200    0.0014477000   -0.0001863100
   0.0000008200   -0.0002431800   -0.0002527100
   0.0003227600   -0.0002004200    0.0014461700
  -0.0000018500   -0.0006769900   -0.0006940000
   0.0002212700    0.0019982200    0.0003567000
  -0.0002341700    0.0003567500    0.0019940100
  -0.0000975100   -0.0001827800   -0.0002983200
   0.0000952100   -0.0002903300   -0.0001717900
   0.0001104500    0.0065628300    0.0067100600
  -0.0002617900   -0.0002180800   -0.0004201100
   0.0000081900   -0.0000857500   -0.0000756600
   0.0002748900   -0.0004134200   -0.0002198300
  -0.0003178300   -0.0001840700    0.0014445100
   0.0000045100   -0.0002499000   -0.0002454300
   0.0003262200    0.0014478600   -0.0002012900
   0.0000008300   -0.0006911800   -0.0006785400
  -0.0004151900    0.0001688700    0.0001637100
   0.0004045400    0.0001586900    0.0001526600
  -0.0000325300   -0.0001379800   -0.0001449700
   0.0000281500   -0.0001426700   -0.0001488000
   0.0000004400    0.0001325700    0.0001270100
  -0.0000367300   -0.0000768900   -0.0001289300
   0.0000081000   -0.0000909400   -0.0000987700
   0.0000491100   -0.0001333000   -0.0000720100
  -0.0006482300    0.0001629800   -0.0000331900
  -0.0000112000   -0.0000446000   -0.0001028300
   0.0000142100   -0.0000985000   -0.0000404800
   0.0006422100   -0.0000446900    0.0001538200
   0.0002212300    0.0003563300    0.0019966100
  -0.0002330500    0.0019931300    0.0003561000
  -0.0000970000   -0.0002982000   -0.0001825900
   0.0000959900   -0.0001721400   -0.0002909800
  -0.0000023900    0.0001293500    0.0001296000
  -0.0000403500   -0.0001254800   -0.0000792800
   0.0000055600   -0.0000943200   -0.0000943200
   0.0000463200   -0.0000669400   -0.0001369200
  -0.0003663700    0.0000889100    0.0000886900
  -0.0000111900   -0.0000783800   -0.0000792400
   0.0000148000   -0.0000841300   -0.0000862100
   0.0003605000    0.0000918100    0.0000902900
  -0.0002622900    0.0001867000    0.0000756500
   0.0000063700   -0.0000853400   -0.0000919200
   0.0002717400    0.0000638500    0.0001861600
   0.0000050200   -0.0000989400   -0.0001061100
   0.0001073700    0.0067059700    0.0065652800
  -0.0002648900   -0.0004228900   -0.0002138000
   0.0000058200   -0.0000787900   -0.0000821000
   0.0002721800   -0.0002226000   -0.0004098300
  -0.0006552300   -0.0000337000    0.0001632800
  -0.0000168900   -0.0001026800   -0.0000447400
   0.0000079100   -0.0000395400   -0.0000974500
   0.0006370600    0.0001531600   -0.0000449600
  -0.0002653900    0.0000728400    0.0001897100
   0.0000031700   -0.0000939100   -0.0000827800
   0.0002678700    0.0001828900    0.0000667700
   0.0000026100   -0.0001093400   -0.0000964700
  -0.0003828200    0.0002312700    0.0002369700
   0.0003705400    0.0002206900    0.0002272500
  -0.0000103100   -0.0000958300   -0.0000905900
   0.0000050600   -0.0001010700   -0.0000934900
