   2  128
1 1
    12.194062805523002    -0.000000000000000     0.000000000000000
     0.000000000000000    12.194062805522996     0.000000000000002
     0.000000000000000    -0.000000000000001    12.194062805523004
1 2
     0.416501627244756     0.096253761540499     0.096253761540499
    -0.096165549969546    -0.154666526909105    -0.157182324448219
    -0.096165549969546    -0.157182324448219    -0.154666526909105
1 3
     0.211431645089198    -0.000000000000000    -0.000000000000000
     0.000000000000000     0.009005181635106    -0.029152951928149
     0.000000000000000    -0.029152951928149     0.009005181635106
1 4
     0.416501627244756    -0.096253761540499    -0.096253761540499
     0.096165549969546    -0.154666526909105    -0.157182324448219
     0.096165549969546    -0.157182324448219    -0.154666526909105
1 5
    -0.154666526909105    -0.096165549969546    -0.157182324448219
     0.096253761540499     0.416501627244756     0.096253761540499
    -0.157182324448219    -0.096165549969546    -0.154666526909105
1 6
    -0.016937417118109     0.038274541017108    -0.024764028525672
     0.038274541017108    -0.016937417118109    -0.024764028525672
    -0.017723808247136    -0.017723808247136    -0.000923304679534
1 7
    -0.016937417118109     0.024764028525672    -0.038274541017108
     0.017723808247136    -0.000923304679534    -0.017723808247136
    -0.038274541017108    -0.024764028525672    -0.016937417118109
1 8
    -0.154666526909105     0.157182324448219     0.096165549969546
     0.157182324448219    -0.154666526909105    -0.096165549969546
    -0.096253761540499     0.096253761540499     0.416501627244756
1 9
     0.009005181635106    -0.000000000000000    -0.029152951928149
    -0.000000000000000     0.211431645089198     0.000000000000000
    -0.029152951928149    -0.000000000000000     0.009005181635106
1 10
    -0.000923304679534     0.017723808247136    -0.017723808247136
     0.024764028525672    -0.016937417118109    -0.038274541017108
    -0.024764028525672    -0.038274541017108    -0.016937417118109
1 11
     0.009005181635106     0.029152951928149     0.000000000000000
     0.029152951928149     0.009005181635106     0.000000000000000
     0.000000000000000     0.000000000000000     0.211431645089198
1 12
    -0.000905627010005     0.024783032020417    -0.024783032020417
     0.017790011119525    -0.016957658049720    -0.038232379775280
    -0.017790011119525    -0.038232379775280    -0.016957658049720
1 13
    -0.154666526909105     0.096165549969546    -0.157182324448219
    -0.096253761540499     0.416501627244756    -0.096253761540499
    -0.157182324448219     0.096165549969546    -0.154666526909105
1 14
    -0.154666526909105     0.157182324448219    -0.096165549969546
     0.157182324448219    -0.154666526909105     0.096165549969546
     0.096253761540499    -0.096253761540499     0.416501627244756
1 15
    -0.016957658049720     0.017790011119525    -0.038232379775280
     0.024783032020417    -0.000905627010005    -0.024783032020417
    -0.038232379775280    -0.017790011119525    -0.016957658049720
1 16
    -0.016957658049720     0.038232379775280    -0.017790011119525
     0.038232379775280    -0.016957658049720    -0.017790011119525
    -0.024783032020417    -0.024783032020417    -0.000905627010005
1 17
    -0.154666526909105    -0.157182324448219    -0.096165549969546
    -0.157182324448219    -0.154666526909105    -0.096165549969546
     0.096253761540499     0.096253761540499     0.416501627244756
1 18
    -0.016937417118109    -0.024764028525672     0.038274541017108
    -0.017723808247136    -0.000923304679534    -0.017723808247136
     0.038274541017108    -0.024764028525672    -0.016937417118109
1 19
    -0.016937417118109    -0.038274541017108     0.024764028525672
    -0.038274541017108    -0.016937417118109    -0.024764028525672
     0.017723808247136    -0.017723808247136    -0.000923304679534
1 20
    -0.154666526909105     0.096165549969546     0.157182324448219
    -0.096253761540499     0.416501627244756     0.096253761540499
     0.157182324448219    -0.096165549969546    -0.154666526909105
1 21
    -0.000923304679534    -0.017723808247136    -0.017723808247136
    -0.024764028525672    -0.016937417118109     0.038274541017108
    -0.024764028525672     0.038274541017108    -0.016937417118109
1 22
    -0.010642664163639     0.000000000000000    -0.000000000000000
    -0.000000000000000    -0.010642664163639    -0.000000000000000
    -0.000000000000000     0.000000000000000    -0.010642664163639
1 23
    -0.000923304679534     0.017723808247136     0.017723808247136
     0.024764028525672    -0.016937417118109     0.038274541017108
     0.024764028525672     0.038274541017108    -0.016937417118109
1 24
    -0.008841663191957     0.000000000000000    -0.000000000000000
    -0.000000000000000    -0.023308891158338     0.000039774756442
    -0.000000000000000     0.000039774756442    -0.023308891158338
1 25
    -0.016937417118109    -0.038274541017108    -0.024764028525672
    -0.038274541017108    -0.016937417118109     0.024764028525672
    -0.017723808247136     0.017723808247136    -0.000923304679534
1 26
    -0.016937417118109     0.024764028525672     0.038274541017108
     0.017723808247136    -0.000923304679534     0.017723808247136
     0.038274541017108     0.024764028525672    -0.016937417118109
1 27
    -0.012824795690380    -0.000365043875788    -0.001132785063461
    -0.000365043875788    -0.012824795690380    -0.001132785063461
     0.001096192287534     0.001096192287534    -0.014843231997277
1 28
    -0.012824795690380     0.001132785063461     0.000365043875788
    -0.001096192287534    -0.014843231997277     0.001096192287534
     0.000365043875788    -0.001132785063461    -0.012824795690380
1 29
     0.416501627244756    -0.096253761540499     0.096253761540499
     0.096165549969546    -0.154666526909105     0.157182324448219
    -0.096165549969546     0.157182324448219    -0.154666526909105
1 30
    -0.023308891158338     0.000000000000000     0.000039774756442
    -0.000000000000000    -0.008841663191957    -0.000000000000000
     0.000039774756442     0.000000000000000    -0.023308891158338
1 31
    -0.014843231997277    -0.001096192287534     0.001096192287534
     0.001132785063461    -0.012824795690380     0.000365043875788
    -0.001132785063461     0.000365043875788    -0.012824795690380
1 32
    -0.023308891158338    -0.000039774756442     0.000000000000000
    -0.000039774756442    -0.023308891158338    -0.000000000000000
    -0.000000000000000     0.000000000000000    -0.008841663191957
1 33
     0.009005181635106    -0.029152951928149     0.000000000000000
    -0.029152951928149     0.009005181635106     0.000000000000000
     0.000000000000000     0.000000000000000     0.211431645089198
1 34
    -0.000923304679534    -0.017723808247136     0.017723808247136
    -0.024764028525672    -0.016937417118109    -0.038274541017108
     0.024764028525672    -0.038274541017108    -0.016937417118109
1 35
     0.009005181635106    -0.000000000000000     0.029152951928149
     0.000000000000000     0.211431645089198     0.000000000000000
     0.029152951928149    -0.000000000000000     0.009005181635106
1 36
    -0.000905627010005    -0.024783032020417     0.024783032020417
    -0.017790011119525    -0.016957658049720    -0.038232379775280
     0.017790011119525    -0.038232379775280    -0.016957658049720
1 37
    -0.016937417118109    -0.024764028525672    -0.038274541017108
    -0.017723808247136    -0.000923304679534     0.017723808247136
    -0.038274541017108     0.024764028525672    -0.016937417118109
1 38
    -0.016937417118109     0.038274541017108     0.024764028525672
     0.038274541017108    -0.016937417118109     0.024764028525672
     0.017723808247136     0.017723808247136    -0.000923304679534
1 39
    -0.012824795690380    -0.001132785063461    -0.000365043875788
     0.001096192287534    -0.014843231997277     0.001096192287534
    -0.000365043875788    -0.001132785063461    -0.012824795690380
1 40
    -0.012824795690380     0.000365043875788     0.001132785063461
     0.000365043875788    -0.012824795690380    -0.001132785063461
    -0.001096192287534     0.001096192287534    -0.014843231997277
1 41
     0.211431645089198    -0.000000000000000    -0.000000000000000
     0.000000000000000     0.009005181635106     0.029152951928149
    -0.000000000000000     0.029152951928149     0.009005181635106
1 42
    -0.014843231997277     0.001096192287534     0.001096192287534
    -0.001132785063461    -0.012824795690380    -0.000365043875788
    -0.001132785063461    -0.000365043875788    -0.012824795690380
1 43
    -0.012017279746265     0.000000000000000    -0.000000000000000
    -0.000000000000000    -0.012017279746265    -0.000000000000000
    -0.000000000000000     0.000000000000000    -0.012017279746265
1 44
    -0.014843231997277    -0.001096192287534    -0.001096192287534
     0.001132785063461    -0.012824795690380    -0.000365043875788
     0.001132785063461    -0.000365043875788    -0.012824795690380
1 45
    -0.016957658049720    -0.017790011119525    -0.038232379775280
    -0.024783032020417    -0.000905627010005     0.024783032020417
    -0.038232379775280     0.017790011119525    -0.016957658049720
1 46
    -0.012824795690380     0.000365043875788    -0.001132785063461
     0.000365043875788    -0.012824795690380     0.001132785063461
     0.001096192287534    -0.001096192287534    -0.014843231997277
1 47
    -0.012824795690380     0.001132785063461    -0.000365043875788
    -0.001096192287534    -0.014843231997277    -0.001096192287534
    -0.000365043875788     0.001132785063461    -0.012824795690380
1 48
    -0.016957658049720     0.038232379775280     0.017790011119525
     0.038232379775280    -0.016957658049720     0.017790011119525
     0.024783032020417     0.024783032020417    -0.000905627010005
1 49
    -0.154666526909105    -0.157182324448219     0.096165549969546
    -0.157182324448219    -0.154666526909105     0.096165549969546
    -0.096253761540499    -0.096253761540499     0.416501627244756
1 50
    -0.154666526909105    -0.096165549969546     0.157182324448219
     0.096253761540499     0.416501627244756    -0.096253761540499
     0.157182324448219     0.096165549969546    -0.154666526909105
1 51
    -0.016957658049720    -0.038232379775280     0.017790011119525
    -0.038232379775280    -0.016957658049720    -0.017790011119525
     0.024783032020417    -0.024783032020417    -0.000905627010005
1 52
    -0.016957658049720    -0.017790011119525     0.038232379775280
    -0.024783032020417    -0.000905627010005    -0.024783032020417
     0.038232379775280    -0.017790011119525    -0.016957658049720
1 53
     0.416501627244756     0.096253761540499    -0.096253761540499
    -0.096165549969546    -0.154666526909105     0.157182324448219
     0.096165549969546     0.157182324448219    -0.154666526909105
1 54
    -0.023308891158338     0.000039774756442     0.000000000000000
     0.000039774756442    -0.023308891158338    -0.000000000000000
    -0.000000000000000     0.000000000000000    -0.008841663191957
1 55
    -0.014843231997277     0.001096192287534    -0.001096192287534
    -0.001132785063461    -0.012824795690380     0.000365043875788
     0.001132785063461     0.000365043875788    -0.012824795690380
1 56
    -0.023308891158338     0.000000000000000    -0.000039774756442
    -0.000000000000000    -0.008841663191957    -0.000000000000000
    -0.000039774756442     0.000000000000000    -0.023308891158338
1 57
    -0.016957658049720    -0.038232379775280    -0.017790011119525
    -0.038232379775280    -0.016957658049720     0.017790011119525
    -0.024783032020417     0.024783032020417    -0.000905627010005
1 58
    -0.012824795690380    -0.001132785063461     0.000365043875788
     0.001096192287534    -0.014843231997277    -0.001096192287534
     0.000365043875788     0.001132785063461    -0.012824795690380
1 59
    -0.012824795690380    -0.000365043875788     0.001132785063461
    -0.000365043875788    -0.012824795690380     0.001132785063461
    -0.001096192287534    -0.001096192287534    -0.014843231997277
1 60
    -0.016957658049720     0.017790011119525     0.038232379775280
     0.024783032020417    -0.000905627010005     0.024783032020417
     0.038232379775280     0.017790011119525    -0.016957658049720
1 61
    -0.000905627010005    -0.024783032020417    -0.024783032020417
    -0.017790011119525    -0.016957658049720     0.038232379775280
    -0.017790011119525     0.038232379775280    -0.016957658049720
1 62
    -0.008841663191957     0.000000000000000    -0.000000000000000
    -0.000000000000000    -0.023308891158338    -0.000039774756442
    -0.000000000000000    -0.000039774756442    -0.023308891158338
1 63
    -0.000905627010005     0.024783032020417     0.024783032020417
     0.017790011119525    -0.016957658049720     0.038232379775280
     0.017790011119525     0.038232379775280    -0.016957658049720
1 64
    -0.010742366219786     0.000000000000000    -0.000000000000000
    -0.000000000000000    -0.010742366219786    -0.000000000000000
    -0.000000000000000     0.000000000000000    -0.010742366219786
1 65
    -3.014620891377964    -2.076291518568633    -2.076291518568633
    -2.076291518568633    -3.014620891377963    -2.076291518568633
    -2.076291518568633    -2.076291518568633    -3.014620891377964
1 66
    -0.243389866395010     0.038860997703755     0.038860997703755
     0.038823962986090    -0.011571979250813     0.006724939042475
     0.038823962986090     0.006724939042475    -0.011571979250813
1 67
    -0.243389866395010    -0.038860997703755    -0.038860997703755
    -0.038823962986090    -0.011571979250813     0.006724939042475
    -0.038823962986090     0.006724939042475    -0.011571979250813
1 68
    -3.014620891377964     2.076291518568633     2.076291518568633
     2.076291518568633    -3.014620891377963    -2.076291518568633
     2.076291518568633    -2.076291518568633    -3.014620891377964
1 69
    -0.011571979250813     0.038823962986090     0.006724939042475
     0.038860997703755    -0.243389866395010     0.038860997703755
     0.006724939042475     0.038823962986090    -0.011571979250813
1 70
     0.006139277850957    -0.028943736709266     0.028943736709266
    -0.028943736709266     0.006139277850957     0.028943736709266
     0.028943736709266     0.028943736709266     0.006139277850957
1 71
    -0.011571979250813    -0.006724939042475    -0.038823962986090
    -0.006724939042475    -0.011571979250813     0.038823962986090
    -0.038860997703755     0.038860997703755    -0.243389866395010
1 72
     0.004261555793516    -0.026681702116250     0.026681702116250
    -0.026642634466590     0.032238058814466     0.064641669004078
     0.026642634466590     0.064641669004078     0.032238058814466
1 73
    -0.011571979250813    -0.038823962986090     0.006724939042475
    -0.038860997703755    -0.243389866395010    -0.038860997703755
     0.006724939042475    -0.038823962986090    -0.011571979250813
1 74
    -0.011571979250813    -0.006724939042475     0.038823962986090
    -0.006724939042475    -0.011571979250813    -0.038823962986090
     0.038860997703755    -0.038860997703755    -0.243389866395010
1 75
    -0.000650184685301    -0.012052458308629     0.025727019573301
    -0.012052458308629    -0.000650184685301     0.025727019573301
     0.025701210175787     0.025701210175787     0.015887275159699
1 76
    -0.000650184685301    -0.025727019573301     0.012052458308629
    -0.025701210175787     0.015887275159699     0.025701210175787
     0.012052458308629     0.025727019573301    -0.000650184685301
1 77
    -3.014620891377964     2.076291518568634    -2.076291518568633
     2.076291518568632    -3.014620891377962     2.076291518568632
    -2.076291518568634     2.076291518568634    -3.014620891377965
1 78
     0.032238058814466    -0.026642634466590     0.064641669004078
    -0.026681702116250     0.004261555793516     0.026681702116250
     0.064641669004078     0.026642634466590     0.032238058814466
1 79
     0.015887275159699    -0.025701210175787     0.025701210175787
    -0.025727019573301    -0.000650184685301     0.012052458308629
     0.025727019573301     0.012052458308629    -0.000650184685301
1 80
     0.032238058814466    -0.064641669004078     0.026642634466590
    -0.064641669004078     0.032238058814466     0.026642634466590
     0.026681702116250     0.026681702116250     0.004261555793516
1 81
    -0.011571979250813     0.006724939042475     0.038823962986090
     0.006724939042475    -0.011571979250813     0.038823962986090
     0.038860997703755     0.038860997703755    -0.243389866395010
1 82
     0.006139277850957     0.028943736709266    -0.028943736709266
     0.028943736709266     0.006139277850957     0.028943736709266
    -0.028943736709266     0.028943736709266     0.006139277850957
1 83
    -0.011571979250813    -0.038823962986090    -0.006724939042475
    -0.038860997703755    -0.243389866395010     0.038860997703755
    -0.006724939042475     0.038823962986090    -0.011571979250813
1 84
     0.004261555793516     0.026681702116250    -0.026681702116250
     0.026642634466590     0.032238058814466     0.064641669004078
    -0.026642634466590     0.064641669004078     0.032238058814466
1 85
     0.006139277850957     0.028943736709266     0.028943736709266
     0.028943736709266     0.006139277850957    -0.028943736709266
     0.028943736709266    -0.028943736709266     0.006139277850957
1 86
     0.006139277850957    -0.028943736709266    -0.028943736709266
    -0.028943736709266     0.006139277850957    -0.028943736709266
    -0.028943736709266    -0.028943736709266     0.006139277850957
1 87
     0.008210923943138     0.002169668769723     0.002169668769723
     0.002184252847085     0.016391265517990     0.003917283179426
     0.002184252847085     0.003917283179426     0.016391265517990
1 88
     0.008210923943138    -0.002169668769723    -0.002169668769723
    -0.002184252847085     0.016391265517990     0.003917283179426
    -0.002184252847085     0.003917283179426     0.016391265517990
1 89
    -0.243389866395010    -0.038860997703755     0.038860997703755
    -0.038823962986090    -0.011571979250813    -0.006724939042475
     0.038823962986090    -0.006724939042475    -0.011571979250813
1 90
     0.016391265517990     0.002184252847085     0.003917283179426
     0.002169668769723     0.008210923943138     0.002169668769723
     0.003917283179426     0.002184252847085     0.016391265517990
1 91
     0.012485914765497    -0.000904831514876     0.000904831514876
    -0.000904831514876     0.012485914765497     0.000904831514876
     0.000904831514876     0.000904831514876     0.012485914765497
1 92
     0.016391265517990    -0.003917283179426    -0.002184252847085
    -0.003917283179426     0.016391265517990     0.002184252847085
    -0.002169668769723     0.002169668769723     0.008210923943138
1 93
     0.032238058814466     0.026642634466590     0.064641669004078
     0.026681702116250     0.004261555793516    -0.026681702116250
     0.064641669004078    -0.026642634466590     0.032238058814466
1 94
     0.016391265517990    -0.002184252847085     0.003917283179426
    -0.002169668769723     0.008210923943138    -0.002169668769723
     0.003917283179426    -0.002184252847085     0.016391265517990
1 95
     0.016391265517990    -0.003917283179426     0.002184252847085
    -0.003917283179426     0.016391265517990    -0.002184252847085
     0.002169668769723    -0.002169668769723     0.008210923943138
1 96
     0.032238058814466    -0.064641669004078    -0.026642634466590
    -0.064641669004078     0.032238058814466    -0.026642634466590
    -0.026681702116250    -0.026681702116250     0.004261555793516
1 97
    -0.011571979250813     0.006724939042475    -0.038823962986090
     0.006724939042475    -0.011571979250813    -0.038823962986090
    -0.038860997703755    -0.038860997703755    -0.243389866395010
1 98
    -0.011571979250813     0.038823962986090    -0.006724939042475
     0.038860997703755    -0.243389866395010    -0.038860997703755
    -0.006724939042475    -0.038823962986090    -0.011571979250813
1 99
    -0.000650184685301     0.025727019573301    -0.012052458308629
     0.025701210175787     0.015887275159699     0.025701210175787
    -0.012052458308629     0.025727019573301    -0.000650184685301
1 100
    -0.000650184685301     0.012052458308629    -0.025727019573301
     0.012052458308629    -0.000650184685301     0.025727019573301
    -0.025701210175787     0.025701210175787     0.015887275159699
1 101
    -0.243389866395010     0.038860997703755    -0.038860997703755
     0.038823962986090    -0.011571979250813    -0.006724939042475
    -0.038823962986090    -0.006724939042475    -0.011571979250813
1 102
     0.016391265517990     0.003917283179426     0.002184252847085
     0.003917283179426     0.016391265517990     0.002184252847085
     0.002169668769723     0.002169668769723     0.008210923943138
1 103
     0.012485914765497     0.000904831514876    -0.000904831514876
     0.000904831514876     0.012485914765497     0.000904831514876
    -0.000904831514876     0.000904831514876     0.012485914765497
1 104
     0.016391265517990    -0.002184252847085    -0.003917283179426
    -0.002169668769723     0.008210923943138     0.002169668769723
    -0.003917283179426     0.002184252847085     0.016391265517990
1 105
     0.015887275159699     0.025701210175787     0.025701210175787
     0.025727019573301    -0.000650184685301    -0.012052458308629
     0.025727019573301    -0.012052458308629    -0.000650184685301
1 106
     0.012485914765497     0.000904831514876     0.000904831514876
     0.000904831514876     0.012485914765497    -0.000904831514876
     0.000904831514876    -0.000904831514876     0.012485914765497
1 107
     0.012485914765497    -0.000904831514876    -0.000904831514876
    -0.000904831514876     0.012485914765497    -0.000904831514876
    -0.000904831514876    -0.000904831514876     0.012485914765497
1 108
     0.015887275159699    -0.025701210175787    -0.025701210175787
    -0.025727019573301    -0.000650184685301    -0.012052458308629
    -0.025727019573301    -0.012052458308629    -0.000650184685301
1 109
    -0.000650184685301     0.012052458308629     0.025727019573301
     0.012052458308629    -0.000650184685301    -0.025727019573301
     0.025701210175787    -0.025701210175787     0.015887275159699
1 110
     0.008210923943138    -0.002169668769723     0.002169668769723
    -0.002184252847085     0.016391265517990    -0.003917283179426
     0.002184252847085    -0.003917283179426     0.016391265517990
1 111
    -0.000650184685301    -0.025727019573301    -0.012052458308629
    -0.025701210175787     0.015887275159699    -0.025701210175787
    -0.012052458308629    -0.025727019573301    -0.000650184685301
1 112
     0.013997885840369    -0.000535810163444     0.000535810163444
    -0.000535810163444     0.013997885840369     0.000535810163444
     0.000535810163444     0.000535810163444     0.013997885840369
1 113
    -3.014620891377964    -2.076291518568634     2.076291518568633
    -2.076291518568633    -3.014620891377963     2.076291518568632
     2.076291518568634     2.076291518568634    -3.014620891377964
1 114
     0.032238058814466     0.064641669004078    -0.026642634466590
     0.064641669004078     0.032238058814466     0.026642634466590
    -0.026681702116250     0.026681702116250     0.004261555793516
1 115
     0.015887275159699     0.025701210175787    -0.025701210175787
     0.025727019573301    -0.000650184685301     0.012052458308629
    -0.025727019573301     0.012052458308629    -0.000650184685301
1 116
     0.032238058814466     0.026642634466590    -0.064641669004078
     0.026681702116250     0.004261555793516     0.026681702116250
    -0.064641669004078     0.026642634466590     0.032238058814466
1 117
     0.032238058814466     0.064641669004078     0.026642634466590
     0.064641669004078     0.032238058814466    -0.026642634466590
     0.026681702116250    -0.026681702116250     0.004261555793516
1 118
     0.016391265517990     0.003917283179426    -0.002184252847085
     0.003917283179426     0.016391265517990    -0.002184252847085
    -0.002169668769723    -0.002169668769723     0.008210923943138
1 119
     0.016391265517990     0.002184252847085    -0.003917283179426
     0.002169668769723     0.008210923943138    -0.002169668769723
    -0.003917283179426    -0.002184252847085     0.016391265517990
1 120
     0.032238058814466    -0.026642634466590    -0.064641669004078
    -0.026681702116250     0.004261555793516    -0.026681702116250
    -0.064641669004078    -0.026642634466590     0.032238058814466
1 121
    -0.000650184685301     0.025727019573301     0.012052458308629
     0.025701210175787     0.015887275159699    -0.025701210175787
     0.012052458308629    -0.025727019573301    -0.000650184685301
1 122
     0.008210923943138     0.002169668769723    -0.002169668769723
     0.002184252847085     0.016391265517990    -0.003917283179426
    -0.002184252847085    -0.003917283179426     0.016391265517990
1 123
    -0.000650184685301    -0.012052458308629    -0.025727019573301
    -0.012052458308629    -0.000650184685301    -0.025727019573301
    -0.025701210175787    -0.025701210175787     0.015887275159699
1 124
     0.013997885840369     0.000535810163444    -0.000535810163444
     0.000535810163444     0.013997885840369     0.000535810163444
    -0.000535810163444     0.000535810163444     0.013997885840369
1 125
     0.004261555793516     0.026681702116250     0.026681702116250
     0.026642634466590     0.032238058814466    -0.064641669004078
     0.026642634466590    -0.064641669004078     0.032238058814466
1 126
     0.004261555793516    -0.026681702116250    -0.026681702116250
    -0.026642634466590     0.032238058814466    -0.064641669004078
    -0.026642634466590    -0.064641669004078     0.032238058814466
1 127
     0.013997885840369     0.000535810163444     0.000535810163444
     0.000535810163444     0.013997885840369    -0.000535810163444
     0.000535810163444    -0.000535810163444     0.013997885840369
1 128
     0.013997885840369    -0.000535810163444    -0.000535810163444
    -0.000535810163444     0.013997885840369    -0.000535810163444
    -0.000535810163444    -0.000535810163444     0.013997885840369
65 1
    -3.014620891377964    -2.076291518568634    -2.076291518568633
    -2.076291518568632    -3.014620891377962    -2.076291518568632
    -2.076291518568634    -2.076291518568634    -3.014620891377965
65 2
    -3.014620891377964     2.076291518568634     2.076291518568633
     2.076291518568633    -3.014620891377963    -2.076291518568632
     2.076291518568634    -2.076291518568634    -3.014620891377964
65 3
    -0.243389866395010    -0.038860997703755    -0.038860997703755
    -0.038823962986090    -0.011571979250813     0.006724939042475
    -0.038823962986090     0.006724939042475    -0.011571979250813
65 4
    -0.243389866395010     0.038860997703755     0.038860997703755
     0.038823962986090    -0.011571979250813     0.006724939042475
     0.038823962986090     0.006724939042475    -0.011571979250813
65 5
    -3.014620891377964     2.076291518568633    -2.076291518568633
     2.076291518568633    -3.014620891377963     2.076291518568633
    -2.076291518568633     2.076291518568633    -3.014620891377964
65 6
     0.032238058814466    -0.064641669004078     0.026642634466590
    -0.064641669004078     0.032238058814466     0.026642634466590
     0.026681702116250     0.026681702116250     0.004261555793516
65 7
     0.015887275159699    -0.025701210175787     0.025701210175787
    -0.025727019573301    -0.000650184685301     0.012052458308629
     0.025727019573301     0.012052458308629    -0.000650184685301
65 8
     0.032238058814466    -0.026642634466590     0.064641669004078
    -0.026681702116250     0.004261555793516     0.026681702116250
     0.064641669004078     0.026642634466590     0.032238058814466
65 9
    -0.011571979250813    -0.038823962986090     0.006724939042475
    -0.038860997703755    -0.243389866395010    -0.038860997703755
     0.006724939042475    -0.038823962986090    -0.011571979250813
65 10
    -0.000650184685301    -0.025727019573301     0.012052458308629
    -0.025701210175787     0.015887275159699     0.025701210175787
     0.012052458308629     0.025727019573301    -0.000650184685301
65 11
    -0.000650184685301    -0.012052458308629     0.025727019573301
    -0.012052458308629    -0.000650184685301     0.025727019573301
     0.025701210175787     0.025701210175787     0.015887275159699
65 12
    -0.011571979250813    -0.006724939042475     0.038823962986090
    -0.006724939042475    -0.011571979250813    -0.038823962986090
     0.038860997703755    -0.038860997703755    -0.243389866395010
65 13
    -0.011571979250813     0.038823962986090     0.006724939042475
     0.038860997703755    -0.243389866395010     0.038860997703755
     0.006724939042475     0.038823962986090    -0.011571979250813
65 14
     0.004261555793516    -0.026681702116250     0.026681702116250
    -0.026642634466590     0.032238058814466     0.064641669004078
     0.026642634466590     0.064641669004078     0.032238058814466
65 15
    -0.011571979250813    -0.006724939042475    -0.038823962986090
    -0.006724939042475    -0.011571979250813     0.038823962986090
    -0.038860997703755     0.038860997703755    -0.243389866395010
65 16
     0.006139277850957    -0.028943736709266     0.028943736709266
    -0.028943736709266     0.006139277850957     0.028943736709266
     0.028943736709266     0.028943736709266     0.006139277850957
65 17
    -3.014620891377964    -2.076291518568633     2.076291518568633
    -2.076291518568633    -3.014620891377963     2.076291518568633
     2.076291518568633     2.076291518568633    -3.014620891377964
65 18
     0.032238058814466     0.026642634466590    -0.064641669004078