phonopy:
  version: "2.43.2"
  frequency_unit_conversion_factor: 15.633302
  symmetry_tolerance: 1.00000e-05
  configuration:
    cell_filename: "POSCAR"
    dim: "4 4 4"
    write_force_constants: ".true."

physical_unit:
  atomic_mass: "AMU"
  length: "angstrom"
  force: "eV/angstrom"
  force_constants: "eV/angstrom^2"

space_group:
  type: "Fd-3m"
  number: 227
  Hall_symbol: "F 4d 2 3 -1d"

supercell_matrix:
- [   4,   0,   0 ]
- [   0,   4,   0 ]
- [   0,   0,   4 ]

primitive_cell:
  lattice:
  - [     0.000000000000000,     2.837257764582241,     2.837257764582241 ] # a
  - [     2.837257764582241,     0.000000000000000,     2.837257764582241 ] # b
  - [     2.837257764582241,     2.837257764582241,     0.000000000000000 ] # c
  points:
  - symbol: Ge # 1
    coordinates: [  0.500000000000000,  0.500000000000000,  0.500000000000000 ]
    mass: 72.640000
  - symbol: Ge # 2
    coordinates: [  0.750000000000000,  0.750000000000000,  0.750000000000000 ]
    mass: 72.640000
  reciprocal_lattice: # without 2pi
  - [    -0.176226498079077,     0.176226498079077,     0.176226498079077 ] # a*
  - [     0.176226498079077,    -0.176226498079077,     0.176226498079077 ] # b*
  - [     0.176226498079077,     0.176226498079077,    -0.176226498079077 ] # c*

unit_cell:
  lattice:
  - [     0.000000000000000,     2.837257764582241,     2.837257764582241 ] # a
  - [     2.837257764582241,     0.000000000000000,     2.837257764582241 ] # b
  - [     2.837257764582241,     2.837257764582241,     0.000000000000000 ] # c
  points:
  - symbol: Ge # 1
    coordinates: [  0.500000000000000,  0.500000000000000,  0.500000000000000 ]
    mass: 72.640000
    reduced_to: 1
  - symbol: Ge # 2
    coordinates: [  0.750000000000000,  0.750000000000000,  0.750000000000000 ]
    mass: 72.640000
    reduced_to: 2

supercell:
  lattice:
  - [     0.000000000000000,    11.349031058328965,    11.349031058328965 ] # a
  - [    11.349031058328965,     0.000000000000000,    11.349031058328965 ] # b
  - [    11.349031058328965,    11.349031058328965,     0.000000000000000 ] # c
  points:
  - symbol: Ge # 1
    coordinates: [  0.125000000000000,  0.125000000000000,  0.125000000000000 ]
    mass: 72.640000
    reduced_to: 1
  - symbol: Ge # 2
    coordinates: [  0.375000000000000,  0.125000000000000,  0.125000000000000 ]
    mass: 72.640000
    reduced_to: 1
  - symbol: Ge # 3
    coordinates: [  0.625000000000000,  0.125000000000000,  0.125000000000000 ]
    mass: 72.640000
    reduced_to: 1
  - symbol: Ge # 4
    coordinates: [  0.875000000000000,  0.125000000000000,  0.125000000000000 ]
    mass: 72.640000
    reduced_to: 1
  - symbol: Ge # 5
    coordinates: [  0.125000000000000,  0.375000000000000,  0.125000000000000 ]
    mass: 72.640000
    reduced_to: 1
  - symbol: Ge # 6
    coordinates: [  0.375000000000000,  0.375000000000000,  0.125000000000000 ]
    mass: 72.640000
    reduced_to: 1
  - symbol: Ge # 7
    coordinates: [  0.625000000000000,  0.375000000000000,  0.125000000000000 ]
    mass: 72.640000
    reduced_to: 1
  - symbol: Ge # 8
    coordinates: [  0.875000000000000,  0.375000000000000,  0.125000000000000 ]
    mass: 72.640000
    reduced_to: 1
  - symbol: Ge # 9
    coordinates: [  0.125000000000000,  0.625000000000000,  0.125000000000000 ]
    mass: 72.640000
    reduced_to: 1
  - symbol: Ge # 10
    coordinates: [  0.375000000000000,  0.625000000000000,  0.125000000000000 ]
    mass: 72.640000
    reduced_to: 1
  - symbol: Ge # 11
    coordinates: [  0.625000000000000,  0.625000000000000,  0.125000000000000 ]
    mass: 72.640000
    reduced_to: 1
  - symbol: Ge # 12
    coordinates: [  0.875000000000000,  0.625000000000000,  0.125000000000000 ]
    mass: 72.640000
    reduced_to: 1
  - symbol: Ge # 13
    coordinates: [  0.125000000000000,  0.875000000000000,  0.125000000000000 ]
    mass: 72.640000
    reduced_to: 1
  - symbol: Ge # 14
    coordinates: [  0.375000000000000,  0.875000000000000,  0.125000000000000 ]
    mass: 72.640000
    reduced_to: 1
  - symbol: Ge # 15
    coordinates: [  0.625000000000000,  0.875000000000000,  0.125000000000000 ]
    mass: 72.640000
    reduced_to: 1
  - symbol: Ge # 16
    coordinates: [  0.875000000000000,  0.875000000000000,  0.125000000000000 ]
    mass: 72.640000
    reduced_to: 1
  - symbol: Ge # 17
    coordinates: [  0.125000000000000,  0.125000000000000,  0.375000000000000 ]
    mass: 72.640000
    reduced_to: 1
  - symbol: Ge # 18
    coordinates: [  0.375000000000000,  0.125000000000000,  0.375000000000000 ]
    mass: 72.640000
    reduced_to: 1
  - symbol: Ge # 19
    coordinates: [  0.625000000000000,  0.125000000000000,  0.375000000000000 ]
    mass: 72.640000
    reduced_to: 1
  - symbol: Ge # 20
    coordinates: [  0.875000000000000,  0.125000000000000,  0.375000000000000 ]
    mass: 72.640000
    reduced_to: 1
  - symbol: Ge # 21
    coordinates: [  0.125000000000000,  0.375000000000000,  0.375000000000000 ]
    mass: 72.640000
    reduced_to: 1
  - symbol: Ge # 22
    coordinates: [  0.375000000000000,  0.375000000000000,  0.375000000000000 ]
    mass: 72.640000
    reduced_to: 1
  - symbol: Ge # 23
    coordinates: [  0.625000000000000,  0.375000000000000,  0.375000000000000 ]
    mass: 72.640000
    reduced_to: 1
  - symbol: Ge # 24
    coordinates: [  0.875000000000000,  0.375000000000000,  0.375000000000000 ]
    mass: 72.640000
    reduced_to: 1
  - symbol: Ge # 25
    coordinates: [  0.125000000000000,  0.625000000000000,  0.375000000000000 ]
    mass: 72.640000
    reduced_to: 1
  - symbol: Ge # 26
    coordinates: [  0.375000000000000,  0.625000000000000,  0.375000000000000 ]
    mass: 72.640000
    reduced_to: 1
  - symbol: Ge # 27
    coordinates: [  0.625000000000000,  0.625000000000000,  0.375000000000000 ]
    mass: 72.640000
    reduced_to: 1
  - symbol: Ge # 28
    coordinates: [  0.875000000000000,  0.625000000000000,  0.375000000000000 ]
    mass: 72.640000
    reduced_to: 1
  - symbol: Ge # 29
    coordinates: [  0.125000000000000,  0.875000000000000,  0.375000000000000 ]
    mass: 72.640000
    reduced_to: 1
  - symbol: Ge # 30
    coordinates: [  0.375000000000000,  0.875000000000000,  0.375000000000000 ]
    mass: 72.640000
    reduced_to: 1
  - symbol: Ge # 31
    coordinates: [  0.625000000000000,  0.875000000000000,  0.375000000000000 ]
    mass: 72.640000
    reduced_to: 1
  - symbol: Ge # 32
    coordinates: [  0.875000000000000,  0.875000000000000,  0.375000000000000 ]
    mass: 72.640000
    reduced_to: 1
  - symbol: Ge # 33
    coordinates: [  0.125000000000000,  0.125000000000000,  0.625000000000000 ]
    mass: 72.640000
    reduced_to: 1
  - symbol: Ge # 34
    coordinates: [  0.375000000000000,  0.125000000000000,  0.625000000000000 ]
    mass: 72.640000
    reduced_to: 1
  - symbol: Ge # 35
    coordinates: [  0.625000000000000,  0.125000000000000,  0.625000000000000 ]
    mass: 72.640000
    reduced_to: 1
  - symbol: Ge # 36
    coordinates: [  0.875000000000000,  0.125000000000000,  0.625000000000000 ]
    mass: 72.640000
    reduced_to: 1
  - symbol: Ge # 37
    coordinates: [  0.125000000000000,  0.375000000000000,  0.625000000000000 ]
    mass: 72.640000
    reduced_to: 1
  - symbol: Ge # 38
    coordinates: [  0.375000000000000,  0.375000000000000,  0.625000000000000 ]
    mass: 72.640000
    reduced_to: 1
  - symbol: Ge # 39
    coordinates: [  0.625000000000000,  0.375000000000000,  0.625000000000000 ]
    mass: 72.640000
    reduced_to: 1
  - symbol: Ge # 40
    coordinates: [  0.875000000000000,  0.375000000000000,  0.625000000000000 ]
    mass: 72.640000
    reduced_to: 1
  - symbol: Ge # 41
    coordinates: [  0.125000000000000,  0.625000000000000,  0.625000000000000 ]
    mass: 72.640000
    reduced_to: 1
  - symbol: Ge # 42
    coordinates: [  0.375000000000000,  0.625000000000000,  0.625000000000000 ]
    mass: 72.640000
    reduced_to: 1
  - symbol: Ge # 43
    coordinates: [  0.625000000000000,  0.625000000000000,  0.625000000000000 ]
    mass: 72.640000
    reduced_to: 1
  - symbol: Ge # 44
    coordinates: [  0.875000000000000,  0.625000000000000,  0.625000000000000 ]
    mass: 72.640000
    reduced_to: 1
  - symbol: Ge # 45
    coordinates: [  0.125000000000000,  0.875000000000000,  0.625000000000000 ]
    mass: 72.640000
    reduced_to: 1
  - symbol: Ge # 46
    coordinates: [  0.375000000000000,  0.875000000000000,  0.625000000000000 ]
    mass: 72.640000
    reduced_to: 1
  - symbol: Ge # 47
    coordinates: [  0.625000000000000,  0.875000000000000,  0.625000000000000 ]
    mass: 72.640000
    reduced_to: 1
  - symbol: Ge # 48
    coordinates: [  0.875000000000000,  0.875000000000000,  0.625000000000000 ]
    mass: 72.640000
    reduced_to: 1
  - symbol: Ge # 49
    coordinates: [  0.125000000000000,  0.125000000000000,  0.875000000000000 ]
    mass: 72.640000
    reduced_to: 1
  - symbol: Ge # 50
    coordinates: [  0.375000000000000,  0.125000000000000,  0.875000000000000 ]
    mass: 72.640000
    reduced_to: 1
  - symbol: Ge # 51
    coordinates: [  0.625000000000000,  0.125000000000000,  0.875000000000000 ]
    mass: 72.640000
    reduced_to: 1
  - symbol: Ge # 52
    coordinates: [  0.875000000000000,  0.125000000000000,  0.875000000000000 ]
    mass: 72.640000
    reduced_to: 1
  - symbol: Ge # 53
    coordinates: [  0.125000000000000,  0.375000000000000,  0.875000000000000 ]
    mass: 72.640000
    reduced_to: 1
  - symbol: Ge # 54
    coordinates: [  0.375000000000000,  0.375000000000000,  0.875000000000000 ]
    mass: 72.640000
    reduced_to: 1
  - symbol: Ge # 55
    coordinates: [  0.625000000000000,  0.375000000000000,  0.875000000000000 ]
    mass: 72.640000
    reduced_to: 1
  - symbol: Ge # 56
    coordinates: [  0.875000000000000,  0.375000000000000,  0.875000000000000 ]
    mass: 72.640000
    reduced_to: 1
  - symbol: Ge # 57
    coordinates: [  0.125000000000000,  0.625000000000000,  0.875000000000000 ]
    mass: 72.640000
    reduced_to: 1
  - symbol: Ge # 58
    coordinates: [  0.375000000000000,  0.625000000000000,  0.875000000000000 ]
    mass: 72.640000
    reduced_to: 1
  - symbol: Ge # 59
    coordinates: [  0.625000000000000,  0.625000000000000,  0.875000000000000 ]
    mass: 72.640000
    reduced_to: 1
  - symbol: Ge # 60
    coordinates: [  0.875000000000000,  0.625000000000000,  0.875000000000000 ]
    mass: 72.640000
    reduced_to: 1
  - symbol: Ge # 61
    coordinates: [  0.125000000000000,  0.875000000000000,  0.875000000000000 ]
    mass: 72.640000
    reduced_to: 1
  - symbol: Ge # 62
    coordinates: [  0.375000000000000,  0.875000000000000,  0.875000000000000 ]
    mass: 72.640000
    reduced_to: 1
  - symbol: Ge # 63
    coordinates: [  0.625000000000000,  0.875000000000000,  0.875000000000000 ]
    mass: 72.640000
    reduced_to: 1
  - symbol: Ge # 64
    coordinates: [  0.875000000000000,  0.875000000000000,  0.875000000000000 ]
    mass: 72.640000
    reduced_to: 1
  - symbol: Ge # 65
    coordinates: [  0.187500000000000,  0.187500000000000,  0.187500000000000 ]
    mass: 72.640000
    reduced_to: 65
  - symbol: Ge # 66
    coordinates: [  0.437500000000000,  0.187500000000000,  0.187500000000000 ]
    mass: 72.640000
    reduced_to: 65
  - symbol: Ge # 67
    coordinates: [  0.687500000000000,  0.187500000000000,  0.187500000000000 ]
    mass: 72.640000
    reduced_to: 65
  - symbol: Ge # 68
    coordinates: [  0.937500000000000,  0.187500000000000,  0.187500000000000 ]
    mass: 72.640000
    reduced_to: 65
  - symbol: Ge # 69
    coordinates: [  0.187500000000000,  0.437500000000000,  0.187500000000000 ]
    mass: 72.640000
    reduced_to: 65
  - symbol: Ge # 70
    coordinates: [  0.437500000000000,  0.437500000000000,  0.187500000000000 ]
    mass: 72.640000
    reduced_to: 65
  - symbol: Ge # 71
    coordinates: [  0.687500000000000,  0.437500000000000,  0.187500000000000 ]
    mass: 72.640000
    reduced_to: 65
  - symbol: Ge # 72
    coordinates: [  0.937500000000000,  0.437500000000000,  0.187500000000000 ]
    mass: 72.640000
    reduced_to: 65
  - symbol: Ge # 73
    coordinates: [  0.187500000000000,  0.687500000000000,  0.187500000000000 ]
    mass: 72.640000
    reduced_to: 65
  - symbol: Ge # 74
    coordinates: [  0.437500000000000,  0.687500000000000,  0.187500000000000 ]
    mass: 72.640000
    reduced_to: 65
  - symbol: Ge # 75
    coordinates: [  0.687500000000000,  0.687500000000000,  0.187500000000000 ]
    mass: 72.640000
    reduced_to: 65
  - symbol: Ge # 76
    coordinates: [  0.937500000000000,  0.687500000000000,  0.187500000000000 ]
    mass: 72.640000
    reduced_to: 65
  - symbol: Ge # 77
    coordinates: [  0.187500000000000,  0.937500000000000,  0.187500000000000 ]
    mass: 72.640000
    reduced_to: 65
  - symbol: Ge # 78
    coordinates: [  0.437500000000000,  0.937500000000000,  0.187500000000000 ]
    mass: 72.640000
    reduced_to: 65
  - symbol: Ge # 79
    coordinates: [  0.687500000000000,  0.937500000000000,  0.187500000000000 ]
    mass: 72.640000
    reduced_to: 65
  - symbol: Ge # 80
    coordinates: [  0.937500000000000,  0.937500000000000,  0.187500000000000 ]
    mass: 72.640000
    reduced_to: 65
  - symbol: Ge # 81
    coordinates: [  0.187500000000000,  0.187500000000000,  0.437500000000000 ]
    mass: 72.640000
    reduced_to: 65
  - symbol: Ge # 82
    coordinates: [  0.437500000000000,  0.187500000000000,  0.437500000000000 ]
    mass: 72.640000
    reduced_to: 65
  - symbol: Ge # 83
    coordinates: [  0.687500000000000,  0.187500000000000,  0.437500000000000 ]
    mass: 72.640000
    reduced_to: 65
  - symbol: Ge # 84
    coordinates: [  0.937500000000000,  0.187500000000000,  0.437500000000000 ]
    mass: 72.640000
    reduced_to: 65
  - symbol: Ge # 85
    coordinates: [  0.187500000000000,  0.437500000000000,  0.437500000000000 ]
    mass: 72.640000
    reduced_to: 65
  - symbol: Ge # 86
    coordinates: [  0.437500000000000,  0.437500000000000,  0.437500000000000 ]
    mass: 72.640000
    reduced_to: 65
  - symbol: Ge # 87
    coordinates: [  0.687500000000000,  0.437500000000000,  0.437500000000000 ]
    mass: 72.640000
    reduced_to: 65
  - symbol: Ge # 88
    coordinates: [  0.937500000000000,  0.437500000000000,  0.437500000000000 ]
    mass: 72.640000
    reduced_to: 65
  - symbol: Ge # 89
    coordinates: [  0.187500000000000,  0.687500000000000,  0.437500000000000 ]
    mass: 72.640000
    reduced_to: 65
  - symbol: Ge # 90
    coordinates: [  0.437500000000000,  0.687500000000000,  0.437500000000000 ]
    mass: 72.640000
    reduced_to: 65
  - symbol: Ge # 91
    coordinates: [  0.687500000000000,  0.687500000000000,  0.437500000000000 ]
    mass: 72.640000
    reduced_to: 65
  - symbol: Ge # 92
    coordinates: [  0.937500000000000,  0.687500000000000,  0.437500000000000 ]
    mass: 72.640000
    reduced_to: 65
  - symbol: Ge # 93
    coordinates: [  0.187500000000000,  0.937500000000000,  0.437500000000000 ]
    mass: 72.640000
    reduced_to: 65
  - symbol: Ge # 94
    coordinates: [  0.437500000000000,  0.937500000000000,  0.437500000000000 ]
    mass: 72.640000
    reduced_to: 65
  - symbol: Ge # 95
    coordinates: [  0.687500000000000,  0.937500000000000,  0.437500000000000 ]
    mass: 72.640000
    reduced_to: 65
  - symbol: Ge # 96
    coordinates: [  0.937500000000000,  0.937500000000000,  0.437500000000000 ]
    mass: 72.640000
    reduced_to: 65
  - symbol: Ge # 97
    coordinates: [  0.187500000000000,  0.187500000000000,  0.687500000000000 ]
    mass: 72.640000
    reduced_to: 65
  - symbol: Ge # 98
    coordinates: [  0.437500000000000,  0.187500000000000,  0.687500000000000 ]
    mass: 72.640000
    reduced_to: 65
  - symbol: Ge # 99
    coordinates: [  0.687500000000000,  0.187500000000000,  0.687500000000000 ]
    mass: 72.640000
    reduced_to: 65
  - symbol: Ge # 100
    coordinates: [  0.937500000000000,  0.187500000000000,  0.687500000000000 ]
    mass: 72.640000
    reduced_to: 65
  - symbol: Ge # 101
    coordinates: [  0.187500000000000,  0.437500000000000,  0.687500000000000 ]
    mass: 72.640000
    reduced_to: 65
  - symbol: Ge # 102
    coordinates: [  0.437500000000000,  0.437500000000000,  0.687500000000000 ]
    mass: 72.640000
    reduced_to: 65
  - symbol: Ge # 103
    coordinates: [  0.687500000000000,  0.437500000000000,  0.687500000000000 ]
    mass: 72.640000
    reduced_to: 65
  - symbol: Ge # 104
    coordinates: [  0.937500000000000,  0.437500000000000,  0.687500000000000 ]
    mass: 72.640000
    reduced_to: 65
  - symbol: Ge # 105
    coordinates: [  0.187500000000000,  0.687500000000000,  0.687500000000000 ]
    mass: 72.640000
    reduced_to: 65
  - symbol: Ge # 106
    coordinates: [  0.437500000000000,  0.687500000000000,  0.687500000000000 ]
    mass: 72.640000
    reduced_to: 65
  - symbol: Ge # 107
    coordinates: [  0.687500000000000,  0.687500000000000,  0.687500000000000 ]
    mass: 72.640000
    reduced_to: 65
  - symbol: Ge # 108
    coordinates: [  0.937500000000000,  0.687500000000000,  0.687500000000000 ]
    mass: 72.640000
    reduced_to: 65
  - symbol: Ge # 109
    coordinates: [  0.187500000000000,  0.937500000000000,  0.687500000000000 ]
    mass: 72.640000
    reduced_to: 65
  - symbol: Ge # 110
    coordinates: [  0.437500000000000,  0.937500000000000,  0.687500000000000 ]
    mass: 72.640000
    reduced_to: 65
  - symbol: Ge # 111
    coordinates: [  0.687500000000000,  0.937500000000000,  0.687500000000000 ]
    mass: 72.640000
    reduced_to: 65
  - symbol: Ge # 112
    coordinates: [  0.937500000000000,  0.937500000000000,  0.687500000000000 ]
    mass: 72.640000
    reduced_to: 65
  - symbol: Ge # 113
    coordinates: [  0.187500000000000,  0.187500000000000,  0.937500000000000 ]
    mass: 72.640000
    reduced_to: 65
  - symbol: Ge # 114
    coordinates: [  0.437500000000000,  0.187500000000000,  0.937500000000000 ]
    mass: 72.640000
    reduced_to: 65
  - symbol: Ge # 115
    coordinates: [  0.687500000000000,  0.187500000000000,  0.937500000000000 ]
    mass: 72.640000
    reduced_to: 65
  - symbol: Ge # 116
    coordinates: [  0.937500000000000,  0.187500000000000,  0.937500000000000 ]
    mass: 72.640000
    reduced_to: 65
  - symbol: Ge # 117
    coordinates: [  0.187500000000000,  0.437500000000000,  0.937500000000000 ]
    mass: 72.640000
    reduced_to: 65
  - symbol: Ge # 118
    coordinates: [  0.437500000000000,  0.437500000000000,  0.937500000000000 ]
    mass: 72.640000
    reduced_to: 65
  - symbol: Ge # 119
    coordinates: [  0.687500000000000,  0.437500000000000,  0.937500000000000 ]
    mass: 72.640000
    reduced_to: 65
  - symbol: Ge # 120
    coordinates: [  0.937500000000000,  0.437500000000000,  0.937500000000000 ]
    mass: 72.640000
    reduced_to: 65
  - symbol: Ge # 121
    coordinates: [  0.187500000000000,  0.687500000000000,  0.937500000000000 ]
    mass: 72.640000
    reduced_to: 65
  - symbol: Ge # 122
    coordinates: [  0.437500000000000,  0.687500000000000,  0.937500000000000 ]
    mass: 72.640000
    reduced_to: 65
  - symbol: Ge # 123
    coordinates: [  0.687500000000000,  0.687500000000000,  0.937500000000000 ]
    mass: 72.640000
    reduced_to: 65
  - symbol: Ge # 124
    coordinates: [  0.937500000000000,  0.687500000000000,  0.937500000000000 ]
    mass: 72.640000
    reduced_to: 65
  - symbol: Ge # 125
    coordinates: [  0.187500000000000,  0.937500000000000,  0.937500000000000 ]
    mass: 72.640000
    reduced_to: 65
  - symbol: Ge # 126
    coordinates: [  0.437500000000000,  0.937500000000000,  0.937500000000000 ]
    mass: 72.640000
    reduced_to: 65
  - symbol: Ge # 127
    coordinates: [  0.687500000000000,  0.937500000000000,  0.937500000000000 ]
    mass: 72.640000
    reduced_to: 65
  - symbol: Ge # 128
    coordinates: [  0.937500000000000,  0.937500000000000,  0.937500000000000 ]
    mass: 72.640000
    reduced_to: 65
