calculator: qe
length_unit: au
nqpoint: 707    
npath: 7      
segment_nqpoint:
- 101
- 101
- 101
- 101
- 101
- 101
- 101
labels:
- [ 'G', 'L' ]
- [ 'L', 'X' ]
- [ 'X', 'G' ]
- [ 'G', 'L' ]
- [ 'L', 'X' ]
- [ 'X', 'W' ]
- [ 'W', 'L' ]
reciprocal_lattice:
- [  -0.09173704,   0.09173704,   0.09173704 ] # a*
- [   0.09173704,  -0.09173704,   0.09173704 ] # b*
- [   0.09173704,   0.09173704,  -0.09173704 ] # c*
natom: 2      
lattice:
- [     0.000000000000000,     5.450361359001241,     5.450361359001241 ] # a
- [     5.450361359001241,     0.000000000000000,     5.450361359001241 ] # b
- [     5.450361359001241,     5.450361359001241,     0.000000000000000 ] # c
points:
- symbol: Ge # 1
  coordinates: [  0.000000000000000,  0.000000000000000,  0.000000000000000 ]
  mass: 72.640000
- symbol: Ge # 2
  coordinates: [  0.750000000000000,  0.750000000000000,  0.750000000000000 ]
  mass: 72.640000

phonon:
- q-position: [    0.0000000,    0.0000000,    0.0000000 ]
  distance:    0.0000000
  band:
  - # 1
    frequency:   -0.0000002697
  - # 2
    frequency:   -0.0000002510
  - # 3
    frequency:   -0.0000002169
  - # 4
    frequency:    6.8452588776
  - # 5
    frequency:    6.8452588776
  - # 6
    frequency:    6.8452588776

- q-position: [    0.0037500,    0.0037500,    0.0075000 ]
  distance:    0.0009730
  band:
  - # 1
    frequency:    0.0419320104
  - # 2
    frequency:    0.0571567481
  - # 3
    frequency:    0.0864243137
  - # 4
    frequency:    6.8475649574
  - # 5
    frequency:    6.8477257639
  - # 6
    frequency:    6.8479669239

- q-position: [    0.0075000,    0.0075000,    0.0150000 ]
  distance:    0.0019460
  band:
  - # 1
    frequency:    0.0838729355
  - # 2
    frequency:    0.1143241109
  - # 3
    frequency:    0.1728542418
  - # 4
    frequency:    6.8544595373
  - # 5
    frequency:    6.8551006804
  - # 6
    frequency:    6.8560577148

- q-position: [    0.0112500,    0.0112500,    0.0225000 ]
  distance:    0.0029191
  band:
  - # 1
    frequency:    0.1258313652
  - # 2
    frequency:    0.1715110510
  - # 3
    frequency:    0.2592945138
  - # 4
    frequency:    6.8658720846
  - # 5
    frequency:    6.8673068767
  - # 6
    frequency:    6.8694319156

- q-position: [    0.0150000,    0.0150000,    0.0300000 ]
  distance:    0.0038921
  band:
  - # 1
    frequency:    0.1678152440
  - # 2
    frequency:    0.2287233469
  - # 3
    frequency:    0.3457481241
  - # 4
    frequency:    6.8816865158
  - # 5
    frequency:    6.8842180106
  - # 6
    frequency:    6.8879263003

- q-position: [    0.0187500,    0.0187500,    0.0375000 ]
  distance:    0.0048651
  band:
  - # 1
    frequency:    0.2098315598
  - # 2
    frequency:    0.2859622917
  - # 3
    frequency:    0.4322155522
  - # 4
    frequency:    6.9017433435
  - # 5
    frequency:    6.9056604457
  - # 6
    frequency:    6.9113171351

- q-position: [    0.0225000,    0.0225000,    0.0450000 ]
  distance:    0.0058381
  band:
  - # 1
    frequency:    0.2518860449
  - # 2
    frequency:    0.3432237049
  - # 3
    frequency:    0.5186940793
  - # 4
    frequency:    6.9258425650
  - # 5
    frequency:    6.9314163491
  - # 6
    frequency:    6.9393246950

- q-position: [    0.0262500,    0.0262500,    0.0525000 ]
  distance:    0.0068111
  band:
  - # 1
    frequency:    0.2939828949
  - # 2
    frequency:    0.4004973132
  - # 3
    frequency:    0.6051772233
  - # 4
    frequency:    6.9537471891
  - # 5
    frequency:    6.9612274754
  - # 6
    frequency:    6.9716187205

- q-position: [    0.0300000,    0.0300000,    0.0600000 ]
  distance:    0.0077841
  band:
  - # 1
    frequency:    0.3361245072
  - # 2
    frequency:    0.4577665191
  - # 3
    frequency:    0.6916543044
  - # 4
    frequency:    6.9851872771
  - # 5
    frequency:    6.9947995081
  - # 6
    frequency:    7.0078245896

- q-position: [    0.0337500,    0.0337500,    0.0675000 ]
  distance:    0.0087572
  band:
  - # 1
    frequency:    0.3783112443
  - # 2
    frequency:    0.5150085467
  - # 3
    frequency:    0.7781101484
  - # 4
    frequency:    7.0198643670
  - # 5
    frequency:    7.0318068212
  - # 6
    frequency:    7.0475299751

- q-position: [    0.0375000,    0.0375000,    0.0750000 ]
  distance:    0.0097302
  band:
  - # 1
    frequency:    0.4205412229
  - # 2
    frequency:    0.5721949234
  - # 3
    frequency:    0.8645249227
  - # 4
    frequency:    7.0574561482
  - # 5
    frequency:    7.0718975156
  - # 6
    frequency:    7.0902917605

- q-position: [    0.0412500,    0.0412500,    0.0825000 ]
  distance:    0.0107032
  band:
  - # 1
    frequency:    0.4628101321
  - # 2
    frequency:    0.6292922400
  - # 3
    frequency:    0.9508740974
  - # 4
    frequency:    7.0976212578
  - # 5
    frequency:    7.1146985960
  - # 6
    frequency:    7.1356430065

- q-position: [    0.0450000,    0.0450000,    0.0900000 ]
  distance:    0.0116762
  band:
  - # 1
    frequency:    0.5051110830
  - # 2
    frequency:    0.6862631147
  - # 3
    frequency:    1.0371285173
  - # 4
    frequency:    7.1400040835
  - # 5
    frequency:    7.1598211612
  - # 6
    frequency:    7.1830997873

- q-position: [    0.0487500,    0.0487500,    0.0975000 ]
  distance:    0.0126492
  band:
  - # 1
    frequency:    0.5474344897
  - # 2
    frequency:    0.7430672870
  - # 3
    frequency:    1.1232545679
  - # 4
    frequency:    7.1842394691
  - # 5
    frequency:    7.2068654960
  - # 6
    frequency:    7.2321677480

- q-position: [    0.0525000,    0.0525000,    0.1050000 ]
  distance:    0.0136223
  band:
  - # 1
    frequency:    0.5897679834
  - # 2
    frequency:    0.7996627671
  - # 3
    frequency:    1.2092144166
  - # 4
    frequency:    7.2299572393
  - # 5
    frequency:    7.2554259718
  - # 6
    frequency:    7.2823482719

- q-position: [    0.0562500,    0.0562500,    0.1125000 ]
  distance:    0.0145953
  band:
  - # 1
    frequency:    0.6320963605
  - # 2
    frequency:    0.8560069747
  - # 3
    frequency:    1.2949663114
  - # 4
    frequency:    7.2767864760
  - # 5
    frequency:    7.3050956817
  - # 6
    frequency:    7.3331441754

- q-position: [    0.0600000,    0.0600000,    0.1200000 ]
  distance:    0.0155683
  band:
  - # 1
    frequency:    0.6744015630
  - # 2
    frequency:    0.9120578121
  - # 3
    frequency:    1.3804649188
  - # 4
    frequency:    7.3243594963
  - # 5
    frequency:    7.3554707537
  - # 6
    frequency:    7.3840648840

- q-position: [    0.0637500,    0.0637500,    0.1275000 ]
  distance:    0.0165413
  band:
  - # 1
    frequency:    0.7166626928
  - # 2
    frequency:    0.9677746279
  - # 3
    frequency:    1.4656616866
  - # 4
    frequency:    7.3723155010
  - # 5
    frequency:    7.4061543058
  - # 6
    frequency:    7.4346310654

- q-position: [    0.0675000,    0.0675000,    0.1350000 ]
  distance:    0.0175143
  band:
  - # 1
    frequency:    0.7588560568
  - # 2
    frequency:    1.0231190407
  - # 3
    frequency:    1.5505052184
  - # 4
    frequency:    7.4203038718
  - # 5
    frequency:    7.4567600183
  - # 6
    frequency:    7.4843787194

- q-position: [    0.0712500,    0.0712500,    0.1425000 ]
  distance:    0.0184873
  band:
  - # 1
    frequency:    0.8009552441
  - # 2
    frequency:    1.0780556032
  - # 3
    frequency:    1.6349416510
  - # 4
    frequency:    7.4679871135
  - # 5
    frequency:    7.5069153176
  - # 6
    frequency:    7.5328627393

- q-position: [    0.0750000,    0.0750000,    0.1500000 ]
  distance:    0.0194604
  band:
  - # 1
    frequency:    0.8429312315
  - # 2
    frequency:    1.1325522953
  - # 3
    frequency:    1.7189150257
  - # 4
    frequency:    7.5150434412
  - # 5
    frequency:    7.5562641709
  - # 6
    frequency:    7.5796599718

- q-position: [    0.0787500,    0.0787500,    0.1575000 ]
  distance:    0.0204334
  band:
  - # 1
    frequency:    0.8847525165
  - # 2
    frequency:    1.1865808462
  - # 3
    frequency:    1.8023676502
  - # 4
    frequency:    7.5611690234
  - # 5
    frequency:    7.6044695042
  - # 6
    frequency:    7.6243718090

- q-position: [    0.0825000,    0.0825000,    0.1650000 ]
  distance:    0.0214064
  band:
  - # 1
    frequency:    0.9263852773
  - # 2
    frequency:    1.2401168884
  - # 3
    frequency:    1.8852404495
  - # 4
    frequency:    7.6060798966
  - # 5
    frequency:    7.6512152597
  - # 6
    frequency:    7.6666263523

- q-position: [    0.0862500,    0.0862500,    0.1725000 ]
  distance:    0.0223794
  band:
  - # 1
    frequency:    0.9677935544
  - # 2
    frequency:    1.2931399534
  - # 3
    frequency:    1.9674733021
  - # 4
    frequency:    7.6495135673
  - # 5
    frequency:    7.6962081123
  - # 6
    frequency:    7.7060801866

- q-position: [    0.0900000,    0.0900000,    0.1800000 ]
  distance:    0.0233524
  band:
  - # 1
    frequency:    1.0089394554
  - # 2
    frequency:    1.3456333215
  - # 3
    frequency:    2.0490053666
  - # 4
    frequency:    7.6912303237
  - # 5
    frequency:    7.7391788694
  - # 6
    frequency:    7.7424198045

- q-position: [    0.0937500,    0.0937500,    0.1875000 ]
  distance:    0.0243255
  band:
  - # 1
    frequency:    1.0497833780
  - # 2
    frequency:    1.3975837402
  - # 3
    frequency:    2.1297753968
  - # 4
    frequency:    7.7310142750
  - # 5
    frequency:    7.7753627185
  - # 6
    frequency:    7.7798835765

- q-position: [    0.0975000,    0.0975000,    0.1950000 ]
  distance:    0.0252985
  band:
  - # 1
    frequency:    1.0902842498
  - # 2
    frequency:    1.4489810282
  - # 3
    frequency:    2.2097220504
  - # 4
    frequency:    7.7686741393
  - # 5
    frequency:    7.8046582948
  - # 6
    frequency:    7.8181043533

- q-position: [    0.1012500,    0.1012500,    0.2025000 ]
  distance:    0.0262715
  band:
  - # 1
    frequency:    1.1303997829
  - # 2
    frequency:    1.4998175806
  - # 3
    frequency:    2.2887841935
  - # 4
    frequency:    7.8040437984
  - # 5
    frequency:    7.8300883403
  - # 6
    frequency:    7.8536499819

- q-position: [    0.1050000,    0.1050000,    0.2100000 ]
  distance:    0.0272445
  band:
  - # 1
    frequency:    1.1700867411
  - # 2
    frequency:    1.5500877950
  - # 3
    frequency:    2.3669012056
  - # 4
    frequency:    7.8369826351
  - # 5
    frequency:    7.8514674692
  - # 6
    frequency:    7.8863562686

- q-position: [    0.1087500,    0.1087500,    0.2175000 ]
  distance:    0.0282175
  band:
  - # 1
    frequency:    1.2093012156
  - # 2
    frequency:    1.5997874346
  - # 3
    frequency:    2.4440132865
  - # 4
    frequency:    7.8673756704
  - # 5
    frequency:    7.8686432743
  - # 6
    frequency:    7.9160861986

- q-position: [    0.1125000,    0.1125000,    0.2250000 ]
  distance:    0.0291905
  band:
  - # 1
    frequency:    1.2479989102
  - # 2
    frequency:    1.6489129474
  - # 3
    frequency:    2.5200617714
  - # 4
    frequency:    7.8814963206
  - # 5
    frequency:    7.8951335113
  - # 6
    frequency:    7.9427299007

- q-position: [    0.1162500,    0.1162500,    0.2325000 ]
  distance:    0.0301636
  band:
  - # 1
    frequency:    1.2861354302
  - # 2
    frequency:    1.6974607586
  - # 3
    frequency:    2.5949894556
  - # 4
    frequency:    7.8899399802
  - # 5
    frequency:    7.9201921210
  - # 6
    frequency:    7.9662044365

- q-position: [    0.1200000,    0.1200000,    0.2400000 ]
  distance:    0.0311366
  band:
  - # 1
    frequency:    1.3236665759
  - # 2
    frequency:    1.7454265550
  - # 3
    frequency:    2.6687409334
  - # 4
    frequency:    7.8939201191
  - # 5
    frequency:    7.9425124212
  - # 6
    frequency:    7.9864534285

- q-position: [    0.1237500,    0.1237500,    0.2475000 ]
  distance:    0.0321096
  band:
  - # 1
    frequency:    1.3605486363
  - # 2
    frequency:    1.7928045781
  - # 3
    frequency:    2.7412629533
  - # 4
    frequency:    7.8934146467
  - # 5
    frequency:    7.9620797329
  - # 6
    frequency:    8.0034465374

- q-position: [    0.1275000,    0.1275000,    0.2550000 ]
  distance:    0.0330826
  band:
  - # 1
    frequency:    1.3967386830
  - # 2
    frequency:    1.8395869454
  - # 3
    frequency:    2.8125047921
  - # 4
    frequency:    7.8884329363
  - # 5
    frequency:    7.9789030617
  - # 6
    frequency:    8.0171787976

- q-position: [    0.1312500,    0.1312500,    0.2625000 ]
  distance:    0.0340556
  band:
  - # 1
    frequency:    1.4321948603
  - # 2
    frequency:    1.8857630146
  - # 3
    frequency:    2.8824186510
  - # 4
    frequency:    7.8790151182
  - # 5
    frequency:    7.9930142326
  - # 6
    frequency:    8.0276698214

- q-position: [    0.1350000,    0.1350000,    0.2700000 ]
  distance:    0.0350287
  band:
  - # 1
    frequency:    1.4668766714
  - # 2
    frequency:    1.9313188110
  - # 3
    frequency:    2.9509600734
  - # 4
    frequency:    7.8652312505
  - # 5
    frequency:    8.0044668778
  - # 6
    frequency:    8.0349628751

- q-position: [    0.1387500,    0.1387500,    0.2775000 ]
  distance:    0.0360017
  band:
  - # 1
    frequency:    1.5007452586
  - # 2
    frequency:    1.9762365326
  - # 3
    frequency:    3.0180883865
  - # 4
    frequency:    7.8471803647
  - # 5
    frequency:    8.0133352800
  - # 6
    frequency:    8.0391238362

- q-position: [    0.1425000,    0.1425000,    0.2850000 ]
  distance:    0.0369747
  band:
  - # 1
    frequency:    1.5337636741
  - # 2
    frequency:    2.0204941512
  - # 3
    frequency:    3.0837671657
  - # 4
    frequency:    7.8249893851
  - # 5
    frequency:    8.0197130753
  - # 6
    frequency:    8.0402400349

- q-position: [    0.1462500,    0.1462500,    0.2925000 ]
  distance:    0.0379477
  band:
  - # 1
    frequency:    1.5658971422
  - # 2
    frequency:    2.0640651235
  - # 3
    frequency:    3.1479647202
  - # 4
    frequency:    7.7988119163
  - # 5
    frequency:    8.0237118178
  - # 6
    frequency:    8.0384189851

- q-position: [    0.1500000,    0.1500000,    0.3000000 ]
  distance:    0.0389207
  band:
  - # 1
    frequency:    1.5971133099
  - # 2
    frequency:    2.1069182297
  - # 3
    frequency:    3.2106545980
  - # 4
    frequency:    7.7688268947
  - # 5
    frequency:    8.0254594108
  - # 6
    frequency:    8.0337870089

- q-position: [    0.1537500,    0.1537500,    0.3075000 ]
  distance:    0.0398937
  band:
  - # 1
    frequency:    1.6273824839
  - # 2
    frequency:    2.1490175517
  - # 3
    frequency:    3.2718161043
  - # 4
    frequency:    7.7352370929
  - # 5
    frequency:    8.0250984095
  - # 6
    frequency:    8.0264877598

- q-position: [    0.1575000,    0.1575000,    0.3150000 ]
  distance:    0.0408668
  band:
  - # 1
    frequency:    1.6566778542
  - # 2
    frequency:    2.1903226055
  - # 3
    frequency:    3.3314348284
  - # 4
    frequency:    7.6982674712
  - # 5
    frequency:    8.0166806493
  - # 6
    frequency:    8.0227842026

- q-position: [    0.1612500,    0.1612500,    0.3225000 ]
  distance:    0.0418398
  band:
  - # 1
    frequency:    1.6849757011
  - # 2
    frequency:    2.2307886394
  - # 3
    frequency:    3.3895031698
  - # 4
    frequency:    7.6581633645
  - # 5
    frequency:    8.0045391817
  - # 6
    frequency:    8.0186830822

- q-position: [    0.1650000,    0.1650000,    0.3300000 ]
  distance:    0.0428128
  band:
  - # 1
    frequency:    1.7122555853
  - # 2
    frequency:    2.2703671070
  - # 3
    frequency:    3.4460208533
  - # 4
    frequency:    7.6151884942
  - # 5
    frequency:    7.9902492040
  - # 6
    frequency:    8.0129702141

- q-position: [    0.1687500,    0.1687500,    0.3375000 ]
  distance:    0.0437858
  band:
  - # 1
    frequency:    1.7385005191
  - # 2
    frequency:    2.3090063229
  - # 3
    frequency:    3.5009954197
  - # 4
    frequency:    7.5696227967
  - # 5
    frequency:    7.9740070791
  - # 6
    frequency:    8.0058275246

- q-position: [    0.1725000,    0.1725000,    0.3450000 ]
  distance:    0.0447588
  band:
  - # 1
    frequency:    1.7636971179
  - # 2
    frequency:    2.3466523057
  - # 3
    frequency:    3.5544426774
  - # 4
    frequency:    7.5217600584
  - # 5
    frequency:    7.9560177891
  - # 6
    frequency:    7.9974415212

- q-position: [    0.1762500,    0.1762500,    0.3525000 ]
  distance:    0.0457319
  band:
  - # 1
    frequency:    1.7878357305
  - # 2
    frequency:    2.3832498083
  - # 3
    frequency:    3.6063870957
  - # 4
    frequency:    7.4719053518
  - # 5
    frequency:    7.9364929819
  - # 6
    frequency:    7.9880010728

- q-position: [    0.1800000,    0.1800000,    0.3600000 ]
  distance:    0.0467049
  band:
  - # 1
    frequency:    1.8109105466
  - # 2
    frequency:    2.4187435290
  - # 3
    frequency:    3.6568621223
  - # 4
    frequency:    7.4203722703
  - # 5
    frequency:    7.9156489704
  - # 6
    frequency:    7.9776951726

- q-position: [    0.1837500,    0.1837500,    0.3675000 ]
  distance:    0.0476779
  band:
  - # 1
    frequency:    1.8329196811
  - # 2
    frequency:    2.4530794960
  - # 3
    frequency:    3.7059104027
  - # 4
    frequency:    7.3674799642
  - # 5
    frequency:    7.8937047011
  - # 6
    frequency:    7.9667107161

- q-position: [    0.1875000,    0.1875000,    0.3750000 ]
  distance:    0.0486509
  band:
  - # 1
    frequency:    1.8538652334
  - # 2
    frequency:    2.4862066021
  - # 3
    frequency:    3.7535838802
  - # 4
    frequency:    7.3135499887
  - # 5
    frequency:    7.8708797058
  - # 6
    frequency:    7.9552303252

- q-position: [    0.1912500,    0.1912500,    0.3825000 ]
  distance:    0.0496239
  band:
  - # 1
    frequency:    1.8737533208
  - # 2
    frequency:    2.5180782655
  - # 3
    frequency:    3.7999437567
  - # 4
    frequency:    7.2589029827
  - # 5
    frequency:    7.8473920561
  - # 6
    frequency:    7.9434302543

- q-position: [    0.1950000,    0.1950000,    0.3900000 ]
  distance:    0.0505969
  band:
  - # 1
    frequency:    1.8925940850
  - # 2
    frequency:    2.5486541771
  - # 3
    frequency:    3.8450602938
  - # 4
    frequency:    7.2038552080
  - # 5
    frequency:    7.8234563390
  - # 6
    frequency:    7.9314784148

- q-position: [    0.1987500,    0.1987500,    0.3975000 ]
  distance:    0.0515700
  band:
  - # 1
    frequency:    1.9104016711
  - # 2
    frequency:    2.5779020863
  - # 3
    frequency:    3.8890124387
  - # 4
    frequency:    7.1487149916
  - # 5
    frequency:    7.7992816769
  - # 6
    frequency:    7.9195325520

- q-position: [    0.2025000,    0.2025000,    0.4050000 ]
  distance:    0.0525430
  band:
  - # 1
    frequency:    1.9271941775
  - # 2
    frequency:    2.6057995661
  - # 3
    frequency:    3.9318872637
  - # 4
    frequency:    7.0937791273
  - # 5
    frequency:    7.7750698120
  - # 6
    frequency:    7.9077386109

- q-position: [    0.2062500,    0.2062500,    0.4125000 ]
  distance:    0.0535160
  band:
  - # 1
    frequency:    1.9429935771
  - # 2
    frequency:    2.6323356857
  - # 3
    frequency:    3.9737792125
  - # 4
    frequency:    7.0393293044
  - # 5
    frequency:    7.7510132827
  - # 6
    frequency:    7.8962293206

- q-position: [    0.2100000,    0.2100000,    0.4200000 ]
  distance:    0.0544890
  band:
  - # 1
    frequency:    1.9578256078
  - # 2
    frequency:    2.6575125141
  - # 3
    frequency:    4.0147891548
  - # 4
    frequency:    6.9856286469
  - # 5
    frequency:    7.7272937125
  - # 6
    frequency:    7.8851230234

- q-position: [    0.2137500,    0.2137500,    0.4275000 ]
  distance:    0.0554620
  band:
  - # 1
    frequency:    1.9717196332
  - # 2
    frequency:    2.6813463674
  - # 3
    frequency:    4.0550232591
  - # 4
    frequency:    6.9329184555
  - # 5
    frequency:    7.7040802381
  - # 6
    frequency:    7.8745227704

- q-position: [    0.2175000,    0.2175000,    0.4350000 ]
  distance:    0.0564351
  band:
  - # 1
    frequency:    1.9847084732
  - # 2
    frequency:    2.7038687159
  - # 3
    frequency:    4.0945916990
  - # 4
    frequency:    6.8814152523
  - # 5
    frequency:    7.6815280994
  - # 6
    frequency:    7.8645156951

- q-position: [    0.2212500,    0.2212500,    0.4425000 ]
  distance:    0.0574081
  band:
  - # 1
    frequency:    1.9968282028
  - # 2
    frequency:    2.7251266683
  - # 3
    frequency:    4.1336072212
  - # 4
    frequency:    6.8313082297
  - # 5
    frequency:    7.6597774129
  - # 6
    frequency:    7.8551726718

- q-position: [    0.2250000,    0.2250000,    0.4500000 ]
  distance:    0.0583811
  band:
  - # 1
    frequency:    2.0081179224
  - # 2
    frequency:    2.7451829631
  - # 3
    frequency:    4.1721836053
  - # 4
    frequency:    6.7827572018
  - # 5
    frequency:    7.6389521499
  - # 6
    frequency:    7.8465482548

- q-position: [    0.2287500,    0.2287500,    0.4575000 ]
  distance:    0.0593541
  band:
  - # 1
    frequency:    2.0186194972
  - # 2
    frequency:    2.7641154143
  - # 3
    frequency:    4.2104340564
  - # 4
    frequency:    6.7358911446
  - # 5
    frequency:    7.6191593335
  - # 6
    frequency:    7.8386808893

- q-position: [    0.2325000,    0.2325000,    0.4650000 ]
  distance:    0.0603271
  band:
  - # 1
    frequency:    2.0283772687
  - # 2
    frequency:    2.7820157832
  - # 3
    frequency:    4.2484695741
  - # 4
    frequency:    6.6908073941
  - # 5
    frequency:    7.6004884718
  - # 6
    frequency:    7.8315933749

- q-position: [    0.2362500,    0.2362500,    0.4725000 ]
  distance:    0.0613001
  band:
  - # 1
    frequency:    2.0374377388
  - # 2
    frequency:    2.7989880797
  - # 3
    frequency:    4.2863973429
  - # 4
    frequency:    6.6475715484
  - # 5
    frequency:    7.5830112324
  - # 6
    frequency:    7.8252935581

- q-position: [    0.2400000,    0.2400000,    0.4800000 ]
  distance:    0.0622732
  band:
  - # 1
    frequency:    2.0458492285
  - # 2
    frequency:    2.8151463254
  - # 3
    frequency:    4.3243191911
  - # 4
    frequency:    6.6062180885
  - # 5
    frequency:    7.5667813657
  - # 6
    frequency:    7.8197752254

- q-position: [    0.2437500,    0.2437500,    0.4875000 ]
  distance:    0.0632462
  band:
  - # 1
    frequency:    2.0536615127
  - # 2
    frequency:    2.8306118478
  - # 3
    frequency:    4.3623301613
  - # 4
    frequency:    6.5667517070
  - # 5
    frequency:    7.5518348757
  - # 6
    frequency:    7.8150191643

- q-position: [    0.2475000,    0.2475000,    0.4950000 ]
  distance:    0.0642192
  band:
  - # 1
    frequency:    2.0609254356
  - # 2
    frequency:    2.8455102030
  - # 3
    frequency:    4.4005172324
  - # 4
    frequency:    6.5291492973
  - # 5
    frequency:    7.5381904326
  - # 6
    frequency:    7.8109943584

- q-position: [    0.2512500,    0.2512500,    0.5025000 ]
  distance:    0.0651922
  band:
  - # 1
    frequency:    2.0676925074
  - # 2
    frequency:    2.8599678485
  - # 3
    frequency:    4.4389582254
  - # 4
    frequency:    6.4933625358
  - # 5
    frequency:    7.5258500172
  - # 6
    frequency:    7.8076592831

- q-position: [    0.2550000,    0.2550000,    0.5100000 ]
  distance:    0.0661652
  band:
  - # 1
    frequency:    2.0740144884
  - # 2
    frequency:    2.8741087027
  - # 3
    frequency:    4.4777209180
  - # 4
    frequency:    6.4593209602
  - # 5
    frequency:    7.5147997828
  - # 6
    frequency:    7.8049632682

- q-position: [    0.2587500,    0.2587500,    0.5175000 ]
  distance:    0.0671383
  band:
  - # 1
    frequency:    2.0799429624
  - # 2
    frequency:    2.8880507336
  - # 3
    frequency:    4.5168623847
  - # 4
    frequency:    6.4269354392
  - # 5
    frequency:    7.5050111137
  - # 6
    frequency:    7.8028478971

- q-position: [    0.2625000,    0.2625000,    0.5250000 ]
  distance:    0.0681113
  band:
  - # 1
    frequency:    2.0855289063
  - # 2
    frequency:    2.9019027126
  - # 3
    frequency:    4.5564285696
  - # 4
    frequency:    6.3961019164
  - # 5
    frequency:    7.4964418591
  - # 6
    frequency:    7.8012484153

- q-position: [    0.2662500,    0.2662500,    0.5325000 ]
  distance:    0.0690843
  band:
  - # 1
    frequency:    2.0908222592
  - # 2
    frequency:    2.9157612547
  - # 3
    frequency:    4.5964540901
  - # 4
    frequency:    6.3667053135
  - # 5
    frequency:    7.4890377139
  - # 6
    frequency:    7.8000951228

- q-position: [    0.2700000,    0.2700000,    0.5400000 ]
  distance:    0.0700573
  band:
  - # 1
    frequency:    2.0958714965
  - # 2
    frequency:    2.9297082404
  - # 3
    frequency:    4.6369622636
  - # 4
    frequency:    6.3386234864
  - # 5
    frequency:    7.4827337208
  - # 6
    frequency:    7.7993147307

- q-position: [    0.2737500,    0.2737500,    0.5475000 ]
  distance:    0.0710303
  band:
  - # 1
    frequency:    2.1007232168
  - # 2
    frequency:    2.9438086886
  - # 3
    frequency:    4.6779653396
  - # 4
    frequency:    6.3117311366
  - # 5
    frequency:    7.4774558611
  - # 6
    frequency:    7.7988316641

- q-position: [    0.2775000,    0.2775000,    0.5550000 ]
  distance:    0.0720033
  band:
  - # 1
    frequency:    2.1054217436
  - # 2
    frequency:    2.9581091151
  - # 3
    frequency:    4.7194649169
  - # 4
    frequency:    6.2859035983
  - # 5
    frequency:    7.4731227056
  - # 6
    frequency:    7.7985692997

- q-position: [    0.2812500,    0.2812500,    0.5625000 ]
  distance:    0.0729764
  band:
  - # 1
    frequency:    2.1100087520
  - # 2
    frequency:    2.9726363815
  - # 3
    frequency:    4.7614525206
  - # 4
    frequency:    6.2610204371
  - # 5
    frequency:    7.4696470943
  - # 6
    frequency:    7.7984511239

- q-position: [    0.2850000,    0.2850000,    0.5700000 ]
  distance:    0.0739494
  band:
  - # 1
    frequency:    2.1145229224
  - # 2
    frequency:    2.9873970130
  - # 3
    frequency:    4.8039103103
  - # 4
    frequency:    6.2369688119
  - # 5
    frequency:    7.4669378154
  - # 6
    frequency:    7.7984018078

- q-position: [    0.2887500,    0.2887500,    0.5775000 ]
  distance:    0.0749224
  band:
  - # 1
    frequency:    2.1189996295
  - # 2
    frequency:    3.0023769387
  - # 3
    frequency:    4.8468118927
  - # 4
    frequency:    6.2136465669
  - # 5
    frequency:    7.4649012564
  - # 6
    frequency:    7.7983481893

- q-position: [    0.2925000,    0.2925000,    0.5850000 ]
  distance:    0.0758954
  band:
  - # 1
    frequency:    2.1234706699
  - # 2
    frequency:    3.0175415960
  - # 3
    frequency:    4.8901232089
  - # 4
    frequency:    6.1909650308
  - # 5
    frequency:    7.4634430006
  - # 6
    frequency:    7.7982201612

- q-position: [    0.2962500,    0.2962500,    0.5925000 ]
  distance:    0.0768684
  band:
  - # 1
    frequency:    2.1279640346
  - # 2
    frequency:    3.0328363328
  - # 3
    frequency:    4.9338034713
  - # 4
    frequency:    6.1688515077
  - # 5
    frequency:    7.4624693460
  - # 6
    frequency:    7.7979514607

- q-position: [    0.3000000,    0.3000000,    0.6000000 ]
  distance:    0.0778415
  band:
  - # 1
    frequency:    2.1325037285
  - # 2
    frequency:    3.0481870405
  - # 3
    frequency:    4.9778061244
  - # 4
    frequency:    6.1472514504
  - # 5
    frequency:    7.4618887260
  - # 6
    frequency:    7.7974803595

- q-position: [    0.3037500,    0.3037500,    0.6075000 ]
  distance:    0.0788145
  band:
  - # 1
    frequency:    2.1371096420
  - # 2
    frequency:    3.0635009610
  - # 3
    frequency:    5.0220798090
  - # 4
    frequency:    6.1261303027
  - # 5
    frequency:    7.4616130141
  - # 6
    frequency:    7.7967502534

- q-position: [    0.3075000,    0.3075000,    0.6150000 ]
  distance:    0.0797875
  band:
  - # 1
    frequency:    2.1417974754
  - # 2
    frequency:    3.0786676235
  - # 3
    frequency:    5.0665693113
  - # 4
    frequency:    6.1054749969
  - # 5
    frequency:    7.4615586983
  - # 6
    frequency:    7.7957101504

- q-position: [    0.3112500,    0.3112500,    0.6225000 ]
  distance:    0.0807605
  band:
  - # 1
    frequency:    2.1465787185
  - # 2
    frequency:    3.0935598850
  - # 3
    frequency:    5.1112164810
  - # 4
    frequency:    6.0852950857
  - # 5
    frequency:    7.4616479137
  - # 6
    frequency:    7.7943150587

- q-position: [    0.3150000,    0.3150000,    0.6300000 ]
  distance:    0.0817335
  band:
  - # 1
    frequency:    2.1514606849
  - # 2
    frequency:    3.1080350736
  - # 3
    frequency:    5.1559611074
  - # 4
    frequency:    6.0656234761
  - # 5
    frequency:    7.4618093244
  - # 6
    frequency:    7.7925262738

- q-position: [    0.3187500,    0.3187500,    0.6375000 ]
  distance:    0.0827065
  band:
  - # 1
    frequency:    2.1564466010
  - # 2
    frequency:    3.1219362520
  - # 3
    frequency:    5.2007417437
  - # 4
    frequency:    6.0465167255
  - # 5
    frequency:    7.4619788499
  - # 6
    frequency:    7.7903115668

- q-position: [    0.3225000,    0.3225000,    0.6450000 ]
  distance:    0.0836796
  band:
  - # 1
    frequency:    2.1615357470
  - # 2
    frequency:    3.1350936462
  - # 3
    frequency:    5.2454964733
  - # 4
    frequency:    6.0280548488
  - # 5
    frequency:    7.4621002323
  - # 6
    frequency:    7.7876452757

- q-position: [    0.3262500,    0.3262500,    0.6525000 ]
  distance:    0.0846526
  band:
  - # 1
    frequency:    2.1667236478
  - # 2
    frequency:    3.1473263010
  - # 3
    frequency:    5.2901636134
  - # 4
    frequency:    6.0103405753
  - # 5
    frequency:    7.4621254446
  - # 6
    frequency:    7.7845083007

- q-position: [    0.3300000,    0.3300000,    0.6600000 ]
  distance:    0.0856256
  band:
  - # 1
    frequency:    2.1720023103
  - # 2
    frequency:    3.1584440398
  - # 3
    frequency:    5.3346823544
  - # 4
    frequency:    5.9934979909
  - # 5
    frequency:    7.4620149414
  - # 6