250  
1    

1    
 -0.0141421356237309   0.0000000000000000   0.0141421356237309
   0.0028895304   -0.0000584902   -0.0028895304
  -0.0000809096    0.0000386298    0.0000809096
  -0.0000100496    0.0000060498    0.0000100496
  -0.0000116196   -0.0000073602    0.0000116196
  -0.0000774596   -0.0000404402    0.0000774596
   0.0000706304    0.0000137798    0.0000284996
  -0.0000146496   -0.0000072102    0.0000134696
  -0.0000087596   -0.0000002202    0.0000094696
  -0.0000123896    0.0000042198    0.0000157596
  -0.0000243696   -0.0000140702   -0.0000714704
   0.0000281504    0.0000010198    0.0000041796
  -0.0000120296   -0.0000011402    0.0000124896
  -0.0000097396    0.0000019598    0.0000120996
  -0.0000027096   -0.0000011202   -0.0000245904
  -0.0000195796    0.0000005598    0.0000240896
   0.0000331204    0.0000077698    0.0000091896
  -0.0000216396   -0.0000005502    0.0000201296
  -0.0000091096   -0.0000071202   -0.0000316904
  -0.0000101996    0.0000017698    0.0000143796
  -0.0000109596   -0.0000041402    0.0000128096
   0.0001121804    0.0000521798    0.0000655796
  -0.0000667196   -0.0000529102   -0.0001091704
  -0.0000110096    0.0000038198    0.0000175396
  -0.0000081896   -0.0000012202    0.0000090696
  -0.0000164396   -0.0000050202    0.0000133696
  -0.0000284996    0.0000137798   -0.0000706304
  -0.0000134696   -0.0000072102    0.0000146496
  -0.0000094696   -0.0000002202    0.0000087596
  -0.0000157596    0.0000042198    0.0000123896
   0.0000714704   -0.0000140702    0.0000243696
  -0.0000026196    0.0000076098    0.0000026196
  -0.0000095896   -0.0000007302    0.0000095896
  -0.0000083196    0.0000003298    0.0000083196
  -0.0000034996   -0.0000110902    0.0000034996
  -0.0000125496    0.0000007998    0.0000125496
  -0.0000050696    0.0000076498    0.0000058096
  -0.0000078096    0.0000019998    0.0000092596
  -0.0000010296   -0.0000045402    0.0000054196
  -0.0000089196    0.0000008898    0.0000115096
  -0.0000084696   -0.0000005102    0.0000102096
  -0.0000102096    0.0000117698    0.0000031096
  -0.0000029196   -0.0000123002    0.0000080496
  -0.0000072596    0.0000006798    0.0000107696
  -0.0000066496   -0.0000000402    0.0000084496
  -0.0000107096    0.0000004198    0.0000094796
  -0.0000134296   -0.0000009002    0.0000129996
  -0.0000099696   -0.0000002002    0.0000134996
  -0.0000064796   -0.0000006002    0.0000083296
  -0.0000098496    0.0000008198    0.0000084896
  -0.0000114596   -0.0000002802    0.0000089696
  -0.0000041796    0.0000010198   -0.0000281504
  -0.0000124896   -0.0000011402    0.0000120296
  -0.0000120996    0.0000019598    0.0000097396
   0.0000245904   -0.0000011202    0.0000027096
  -0.0000240896    0.0000005598    0.0000195796
  -0.0000058096    0.0000076498    0.0000050696
  -0.0000092596    0.0000019998    0.0000078096
  -0.0000054196   -0.0000045402    0.0000010296
  -0.0000115096    0.0000008898    0.0000089196
  -0.0000102096   -0.0000005102    0.0000084696
  -0.0000061696    0.0000079198    0.0000061696
  -0.0000038696   -0.0000059202    0.0000038696
  -0.0000085396    0.0000019498    0.0000085396
  -0.0000077196   -0.0000007802    0.0000077196
  -0.0000105496    0.0000007998    0.0000105496
  -0.0000028096    0.0000000898    0.0000004596
  -0.0000080296    0.0000013898    0.0000086896
  -0.0000066696    0.0000007998    0.0000085196
  -0.0000083196    0.0000017698    0.0000101096
  -0.0000102796   -0.0000005902    0.0000086896
  -0.0000065296    0.0000153398    0.0000066096
  -0.0000079296   -0.0000002002    0.0000089196
  -0.0000090896    0.0000008598    0.0000079096
  -0.0000091396   -0.0000007502    0.0000073596
  -0.0000092296   -0.0000129602    0.0000042096
  -0.0000091896    0.0000077698   -0.0000331204
  -0.0000201296   -0.0000005502    0.0000216396
   0.0000316904   -0.0000071202    0.0000091096
  -0.0000143796    0.0000017698    0.0000101996
  -0.0000128096   -0.0000041402    0.0000109596
  -0.0000031096    0.0000117698    0.0000102096
  -0.0000080496   -0.0000123002    0.0000029196
  -0.0000107696    0.0000006798    0.0000072596
  -0.0000084496   -0.0000000402    0.0000066496
  -0.0000094796    0.0000004198    0.0000107096
  -0.0000004596    0.0000000898    0.0000028096
  -0.0000086896    0.0000013898    0.0000080296
  -0.0000085196    0.0000007998    0.0000066696
  -0.0000101096    0.0000017698    0.0000083196
  -0.0000086896   -0.0000005902    0.0000102796
  -0.0000047696    0.0000091698    0.0000047696
  -0.0000071996    0.0000003798    0.0000071996
  -0.0000090896    0.0000016098    0.0000090896
  -0.0000087496    0.0000005398    0.0000087496
  -0.0000064196   -0.0000063002    0.0000064196
  -0.0000026296    0.0000060298    0.0000024396
  -0.0000096596   -0.0000005002    0.0000099096
  -0.0000101796    0.0000004998    0.0000086696
  -0.0000076596   -0.0000044502    0.0000027896
  -0.0000111596   -0.0000001402    0.0000083096
  -0.0000655796    0.0000521798   -0.0001121804
   0.0001091704   -0.0000529102    0.0000667196
  -0.0000175396    0.0000038198    0.0000110096
  -0.0000090696   -0.0000012202    0.0000081896
  -0.0000133696   -0.0000050202    0.0000164396
  -0.0000129996   -0.0000009002    0.0000134296
  -0.0000134996   -0.0000002002    0.0000099696
  -0.0000083296   -0.0000006002    0.0000064796
  -0.0000084896    0.0000008198    0.0000098496
  -0.0000089696   -0.0000002802    0.0000114596
  -0.0000066096    0.0000153398    0.0000065296
  -0.0000089196   -0.0000002002    0.0000079296
  -0.0000079096    0.0000008598    0.0000090896
  -0.0000073596   -0.0000007502    0.0000091396
  -0.0000042096   -0.0000129602    0.0000092296
  -0.0000024396    0.0000060298    0.0000026296
  -0.0000099096   -0.0000005002    0.0000096596
  -0.0000086696    0.0000004998    0.0000101796
  -0.0000027896   -0.0000044502    0.0000076596
  -0.0000083096   -0.0000001402    0.0000111596
  -0.0000024096    0.0000074998    0.0000024096
  -0.0000121696   -0.0000010902    0.0000121696
  -0.0000045896   -0.0000065402    0.0000045896
  -0.0000080896   -0.0000006002    0.0000080896
  -0.0000086296   -0.0000028902    0.0000086296
  -0.0012261196    0.0010143398    0.0012261196
   0.0000061104   -0.0000216702   -0.0000061104
   0.0000111504   -0.0000004802   -0.0000111504
   0.0000062204    0.0000172598   -0.0000062204
  -0.0011926796   -0.0009744202    0.0011926796
  -0.0000336296   -0.0000102302   -0.0000158804
   0.0000127804    0.0000015198   -0.0000110404
   0.0000137404   -0.0000030802   -0.0000126804
   0.0000169104    0.0000074598    0.0000353496
   0.0000332204   -0.0000001202   -0.0000312404
  -0.0000220596   -0.0000026802   -0.0000051804
   0.0000159704    0.0000006998   -0.0000149404
   0.0000089404    0.0000047298    0.0000237496
   0.0000120804   -0.0000019002   -0.0000120304
   0.0000161104    0.0000006598   -0.0000094004
  -0.0000548496    0.0000097198    0.0000013596
  -0.0000031996   -0.0000103002    0.0000542996
   0.0000129404   -0.0000026202   -0.0000128204
   0.0000111204   -0.0000013502   -0.0000082404
   0.0000138604    0.0000016298   -0.0000099804
  -0.0002130596    0.0000037098    0.0002179996
   0.0000174404   -0.0000110802   -0.0000208604
   0.0000111704   -0.0000006302   -0.0000088804
   0.0000084904    0.0000002298   -0.0000086604
   0.0000238004    0.0000104098   -0.0000175304
   0.0000158804   -0.0000102302    0.0000336296
   0.0000110404    0.0000015198   -0.0000127804
   0.0000126804   -0.0000030802   -0.0000137404
  -0.0000353496    0.0000074598   -0.0000169104
   0.0000312404   -0.0000001202   -0.0000332204
   0.0000024404   -0.0000059402   -0.0000024404
   0.0000084804    0.0000006998   -0.0000084804
   0.0000043504    0.0000060298   -0.0000043504
   0.0000096804   -0.0000009302   -0.0000096804
   0.0000105804    0.0000002098   -0.0000105804
   0.0000053404   -0.0000081802   -0.0000050104
   0.0000077504    0.0000105898   -0.0000063904
   0.0000102104    0.0000010298   -0.0000070104
   0.0000094604   -0.0000003902   -0.0000089304
   0.0000080604    0.0000011598   -0.0000065504
   0.0000071904   -0.0000011402   -0.0000086104
   0.0000093504   -0.0000011202   -0.0000102604
   0.0000102804    0.0000005398   -0.0000083804
   0.0000086704    0.0000015498   -0.0000063604
   0.0000102104    0.0000010098   -0.0000093804
   0.0000048704   -0.0000224702   -0.0000093004
   0.0000082704   -0.0000003102   -0.0000093104
   0.0000091304    0.0000000098   -0.0000082804
   0.0000095104   -0.0000015502   -0.0000083304
   0.0000106604    0.0000224098   -0.0000060804
   0.0000051804   -0.0000026802    0.0000220596
   0.0000149404    0.0000006998   -0.0000159704
  -0.0000237496    0.0000047298   -0.0000089404
   0.0000120304   -0.0000019002   -0.0000120804
   0.0000094004    0.0000006598   -0.0000161104
   0.0000050104   -0.0000081802   -0.0000053404
   0.0000063904    0.0000105898   -0.0000077504
   0.0000070104    0.0000010298   -0.0000102104
   0.0000089304   -0.0000003902   -0.0000094604
   0.0000065504    0.0000011598   -0.0000080604
   0.0000037004    0.0000001198   -0.0000037004
   0.0000093204    0.0000009598   -0.0000093204
   0.0000087104    0.0000004698   -0.0000087104
   0.0000070504    0.0000001998   -0.0000070504
   0.0000077004    0.0000006298   -0.0000077004
   0.0000057104   -0.0000071802   -0.0000075104
   0.0000093304    0.0000001098   -0.0000079604
   0.0000086204    0.0000020698   -0.0000073904
   0.0000082004    0.0000002298   -0.0000073904
   0.0000039204    0.0000087698   -0.0000071204
   0.0000045804   -0.0000053602   -0.0000066204
   0.0000078604   -0.0000000502   -0.0000084804
   0.0000085204    0.0000003398   -0.0000094804
   0.0000038904    0.0000058898   -0.0000048504
   0.0000081304    0.0000015898   -0.0000110104
  -0.0000013596    0.0000097198    0.0000548496
  -0.0000542996   -0.0000103002    0.0000031996
   0.0000128204   -0.0000026202   -0.0000129404
   0.0000082404   -0.0000013502   -0.0000111204
   0.0000099804    0.0000016298   -0.0000138604
   0.0000086104   -0.0000011402   -0.0000071904
   0.0000102604   -0.0000011202   -0.0000093504
   0.0000083804    0.0000005398   -0.0000102804
   0.0000063604    0.0000015498   -0.0000086704
   0.0000093804    0.0000010098   -0.0000102104
   0.0000075104   -0.0000071802   -0.0000057104
   0.0000079604    0.0000001098   -0.0000093304
   0.0000073904    0.0000020698   -0.0000086204
   0.0000073904    0.0000002298   -0.0000082004
   0.0000071204    0.0000087698   -0.0000039204
   0.0000077104   -0.0000031102   -0.0000077104
   0.0000077804    0.0000008998   -0.0000077804
   0.0000085404    0.0000009698   -0.0000085404
   0.0000041204    0.0000051698   -0.0000041204
   0.0000080004    0.0000008498   -0.0000080004
   0.0000035504   -0.0000045402   -0.0000059704
   0.0000093604   -0.0000007402   -0.0000100204
   0.0000030404    0.0000064198   -0.0000032004
   0.0000070604   -0.0000003802   -0.0000101004
   0.0000080404   -0.0000009002   -0.0000102404
  -0.0002179996    0.0000037098    0.0002130596
   0.0000208604   -0.0000110802   -0.0000174404
   0.0000088804   -0.0000006302   -0.0000111704
   0.0000086604    0.0000002298   -0.0000084904
   0.0000175304    0.0000104098   -0.0000238004
   0.0000093004   -0.0000224702   -0.0000048704
   0.0000093104   -0.0000003102   -0.0000082704
   0.0000082804    0.0000000098   -0.0000091304
   0.0000083304   -0.0000015502   -0.0000095104
   0.0000060804    0.0000224098   -0.0000106604
   0.0000066204   -0.0000053602   -0.0000045804
   0.0000084804   -0.0000000502   -0.0000078604
   0.0000094804    0.0000003398   -0.0000085204
   0.0000048504    0.0000058898   -0.0000038904
   0.0000110104    0.0000015898   -0.0000081304
   0.0000059704   -0.0000045402   -0.0000035504
   0.0000100204   -0.0000007402   -0.0000093604
   0.0000032004    0.0000064198   -0.0000030404
   0.0000101004   -0.0000003802   -0.0000070604
   0.0000102404   -0.0000009002   -0.0000080404
   0.0000001704   -0.0000128202   -0.0000001704
  -0.0000019296    0.0000115098    0.0000019296
   0.0000099704   -0.0000011602   -0.0000099704
   0.0000096204   -0.0000015902   -0.0000096204
   0.0000097704   -0.0000004102   -0.0000097704
