
     Program PWSCF v.7.4.1 starts on 20Mar2026 at 21:55:25 

     This program is part of the open-source Quantum ESPRESSO suite
     for quantum simulation of materials; please cite
         "P. Giannozzi et al., J. Phys.:Condens. Matter 21 395502 (2009);
         "P. Giannozzi et al., J. Phys.:Condens. Matter 29 465901 (2017);
         "P. Giannozzi et al., J. Chem. Phys. 152 154105 (2020);
          URL http://www.quantum-espresso.org", 
     in publications or presentations arising from this work. More details at
     http://www.quantum-espresso.org/quote

     Parallel version (MPI & OpenMP), running on     432 processor cores
     Number of MPI processes:               432
     Threads/MPI process:                     1

     MPI processes distributed on     6 nodes
     234071 MiB available memory on the printing compute node when the environment starts

     Reading input from scf.in

     Current dimensions of program PWSCF are:
     Max number of different atomic species (ntypx) = 10
     Max number of k-points (npk) =  40000
     Max angular momentum in pseudopotentials (lmaxx) =  4
read_pp_mesh; mismatch in mesh size, discarding the one in header
     Message from routine setup:
     using ibrav=0 with symmetry is DISCOURAGED, use correct ibrav instead

     K-points division:     npool     =       6
     R & G space division:  proc/nbgrp/npool/nimage =      72
     Subspace diagonalization in iterative solution of the eigenvalue problem:
     one sub-group per band group will be used
     ELPA distributed-memory algorithm (size of sub-group:  8*  8 procs)


     Parallelization info
     --------------------
     sticks:   dense  smooth     PW     G-vecs:    dense   smooth      PW
     Min         455     455    116                54344    54344    7051
     Max         456     456    117                54348    54348    7058
     Sum       32767   32767   8395              3912911  3912911  507895

     Using Slab Decomposition



     bravais-lattice index     =            0
     lattice parameter (alat)  =      38.5399  a.u.
     unit-cell volume          =   40477.7067 (a.u.)^3
     number of atoms/cell      =          250
     number of atomic types    =            1
     number of electrons       =      3500.00
     number of Kohn-Sham states=         2100
     kinetic-energy cutoff     =      80.0000  Ry
     charge density cutoff     =     320.0000  Ry
     scf convergence threshold =      1.0E-10
     mixing beta               =       0.7000
     number of iterations used =            8  plain     mixing
     Exchange-correlation= SLA PW PBX PBC
                           (   1   4   3   4   0   0   0)

     celldm(1)=  38.539875  celldm(2)=   0.000000  celldm(3)=   0.000000
     celldm(4)=   0.000000  celldm(5)=   0.000000  celldm(6)=   0.000000

     crystal axes: (cart. coord. in units of alat)
               a(1) = (  -0.707107   0.000000   0.707107 )  
               a(2) = (   0.000000   0.707107   0.707107 )  
               a(3) = (  -0.707107   0.707107   0.000000 )  

     reciprocal axes: (cart. coord. in units 2 pi/alat)
               b(1) = ( -0.707107 -0.707107  0.707107 )  
               b(2) = (  0.707107  0.707107  0.707107 )  
               b(3) = ( -0.707107  0.707107 -0.707107 )  


     PseudoPot. # 1 for Ge read from file:
     ../../pseudo/Ge.pbe-dn-kjpaw_psl.1.0.0.UPF
     MD5 check sum: bc942003d8738c7411b81ec735f00140
     Pseudo is Projector augmented-wave + core cor, Zval = 14.0
     Generated using ATOMPAW code
     Shape of augmentation charge: SINC**2
     Using radial grid of 2342 points,  6 beta functions with: 
                l(1) =   0
                l(2) =   0
                l(3) =   1
                l(4) =   1
                l(5) =   2
                l(6) =   2
     Q(r) pseudized with 0 coefficients 


     atomic species   valence    mass     pseudopotential
     Ge               14.00    72.64000     Ge( 1.00)

      2 Sym. Ops. (no inversion) found



   Cartesian axes

     site n.     atom                  positions (alat units)
         1        Ge     tau(   1) = (  -0.0003669   0.0000000   0.0003669  )
         2        Ge     tau(   2) = (  -0.1414214   0.0000000   0.1414214  )
         3        Ge     tau(   3) = (  -0.2828427   0.0000000   0.2828427  )
         4        Ge     tau(   4) = (  -0.4242641   0.0000000   0.4242641  )
         5        Ge     tau(   5) = (  -0.5656854   0.0000000   0.5656854  )
         6        Ge     tau(   6) = (   0.0000000   0.1414214   0.1414214  )
         7        Ge     tau(   7) = (  -0.1414214   0.1414214   0.2828427  )
         8        Ge     tau(   8) = (  -0.2828427   0.1414214   0.4242641  )
         9        Ge     tau(   9) = (  -0.4242641   0.1414214   0.5656854  )
        10        Ge     tau(  10) = (  -0.5656854   0.1414214   0.7071068  )
        11        Ge     tau(  11) = (   0.0000000   0.2828427   0.2828427  )
        12        Ge     tau(  12) = (  -0.1414214   0.2828427   0.4242641  )
        13        Ge     tau(  13) = (  -0.2828427   0.2828427   0.5656854  )
        14        Ge     tau(  14) = (  -0.4242641   0.2828427   0.7071068  )
        15        Ge     tau(  15) = (  -0.5656854   0.2828427   0.8485281  )
        16        Ge     tau(  16) = (   0.0000000   0.4242641   0.4242641  )
        17        Ge     tau(  17) = (  -0.1414214   0.4242641   0.5656854  )
        18        Ge     tau(  18) = (  -0.2828427   0.4242641   0.7071068  )
        19        Ge     tau(  19) = (  -0.4242641   0.4242641   0.8485281  )
        20        Ge     tau(  20) = (  -0.5656854   0.4242641   0.9899495  )
        21        Ge     tau(  21) = (   0.0000000   0.5656854   0.5656854  )
        22        Ge     tau(  22) = (  -0.1414214   0.5656854   0.7071068  )
        23        Ge     tau(  23) = (  -0.2828427   0.5656854   0.8485281  )
        24        Ge     tau(  24) = (  -1.1313708   1.2727922   0.9899495  )
        25        Ge     tau(  25) = (  -0.5656854   0.5656854   1.1313708  )
        26        Ge     tau(  26) = (  -0.1414214   0.1414214   0.0000000  )
        27        Ge     tau(  27) = (  -0.2828427   0.1414214   0.1414214  )
        28        Ge     tau(  28) = (  -0.4242641   0.1414214   0.2828427  )
        29        Ge     tau(  29) = (  -0.5656854   0.1414214   0.4242641  )
        30        Ge     tau(  30) = (  -0.7071068   0.1414214   0.5656854  )
        31        Ge     tau(  31) = (  -0.1414214   0.2828427   0.1414214  )
        32        Ge     tau(  32) = (  -0.2828427   0.2828427   0.2828427  )
        33        Ge     tau(  33) = (  -0.4242641   0.2828427   0.4242641  )
        34        Ge     tau(  34) = (  -0.5656854   0.2828427   0.5656854  )
        35        Ge     tau(  35) = (  -0.7071068   0.2828427   0.7071068  )
        36        Ge     tau(  36) = (  -0.1414214   0.4242641   0.2828427  )
        37        Ge     tau(  37) = (  -0.2828427   0.4242641   0.4242641  )
        38        Ge     tau(  38) = (  -0.4242641   0.4242641   0.5656854  )
        39        Ge     tau(  39) = (  -0.5656854   0.4242641   0.7071068  )
        40        Ge     tau(  40) = (  -0.7071068   0.4242641   0.8485281  )
        41        Ge     tau(  41) = (  -0.1414214   0.5656854   0.4242641  )
        42        Ge     tau(  42) = (  -0.2828427   0.5656854   0.5656854  )
        43        Ge     tau(  43) = (  -0.4242641   0.5656854   0.7071068  )
        44        Ge     tau(  44) = (  -0.5656854   0.5656854   0.8485281  )
        45        Ge     tau(  45) = (  -0.7071068   0.5656854   0.9899495  )
        46        Ge     tau(  46) = (  -0.1414214   0.7071068   0.5656854  )
        47        Ge     tau(  47) = (  -0.2828427   0.7071068   0.7071068  )
        48        Ge     tau(  48) = (  -0.4242641   0.7071068   0.8485281  )
        49        Ge     tau(  49) = (  -0.5656854   0.7071068   0.9899495  )
        50        Ge     tau(  50) = (  -0.7071068   0.7071068   1.1313708  )
        51        Ge     tau(  51) = (  -0.2828427   0.2828427   0.0000000  )
        52        Ge     tau(  52) = (  -0.4242641   0.2828427   0.1414214  )
        53        Ge     tau(  53) = (  -0.5656854   0.2828427   0.2828427  )
        54        Ge     tau(  54) = (  -0.7071068   0.2828427   0.4242641  )
        55        Ge     tau(  55) = (  -0.8485281   0.2828427   0.5656854  )
        56        Ge     tau(  56) = (  -0.2828427   0.4242641   0.1414214  )
        57        Ge     tau(  57) = (  -0.4242641   0.4242641   0.2828427  )
        58        Ge     tau(  58) = (  -0.5656854   0.4242641   0.4242641  )
        59        Ge     tau(  59) = (  -0.7071068   0.4242641   0.5656854  )
        60        Ge     tau(  60) = (  -0.8485281   0.4242641   0.7071068  )
        61        Ge     tau(  61) = (  -0.2828427   0.5656854   0.2828427  )
        62        Ge     tau(  62) = (  -0.4242641   0.5656854   0.4242641  )
        63        Ge     tau(  63) = (  -0.5656854   0.5656854   0.5656854  )
        64        Ge     tau(  64) = (  -0.7071068   0.5656854   0.7071068  )
        65        Ge     tau(  65) = (  -0.8485281   0.5656854   0.8485281  )
        66        Ge     tau(  66) = (  -0.2828427   0.7071068   0.4242641  )
        67        Ge     tau(  67) = (  -0.4242641   0.7071068   0.5656854  )
        68        Ge     tau(  68) = (  -0.5656854   0.7071068   0.7071068  )
        69        Ge     tau(  69) = (  -0.7071068   0.7071068   0.8485281  )
        70        Ge     tau(  70) = (  -0.8485281   0.7071068   0.9899495  )
        71        Ge     tau(  71) = (  -0.2828427   0.8485281   0.5656854  )
        72        Ge     tau(  72) = (  -0.4242641   0.8485281   0.7071068  )
        73        Ge     tau(  73) = (  -0.5656854   0.8485281   0.8485281  )
        74        Ge     tau(  74) = (  -0.7071068   0.8485281   0.9899495  )
        75        Ge     tau(  75) = (  -0.8485281   0.8485281   1.1313708  )
        76        Ge     tau(  76) = (  -0.4242641   0.4242641   0.0000000  )
        77        Ge     tau(  77) = (  -0.5656854   0.4242641   0.1414214  )
        78        Ge     tau(  78) = (  -0.7071068   0.4242641   0.2828427  )
        79        Ge     tau(  79) = (  -0.8485281   0.4242641   0.4242641  )
        80        Ge     tau(  80) = (  -0.9899495   1.1313708   1.2727922  )
        81        Ge     tau(  81) = (  -0.4242641   0.5656854   0.1414214  )
        82        Ge     tau(  82) = (  -0.5656854   0.5656854   0.2828427  )
        83        Ge     tau(  83) = (  -0.7071068   0.5656854   0.4242641  )
        84        Ge     tau(  84) = (  -0.8485281   0.5656854   0.5656854  )
        85        Ge     tau(  85) = (  -0.9899495   0.5656854   0.7071068  )
        86        Ge     tau(  86) = (  -0.4242641   0.7071068   0.2828427  )
        87        Ge     tau(  87) = (  -0.5656854   0.7071068   0.4242641  )
        88        Ge     tau(  88) = (  -0.7071068   0.7071068   0.5656854  )
        89        Ge     tau(  89) = (  -0.8485281   0.7071068   0.7071068  )
        90        Ge     tau(  90) = (  -0.9899495   0.7071068   0.8485281  )
        91        Ge     tau(  91) = (  -0.4242641   0.8485281   0.4242641  )
        92        Ge     tau(  92) = (  -0.5656854   0.8485281   0.5656854  )
        93        Ge     tau(  93) = (  -0.7071068   0.8485281   0.7071068  )
        94        Ge     tau(  94) = (  -0.8485281   0.8485281   0.8485281  )
        95        Ge     tau(  95) = (  -0.9899495   0.8485281   0.9899495  )
        96        Ge     tau(  96) = (  -0.4242641   0.9899495   0.5656854  )
        97        Ge     tau(  97) = (  -0.5656854   0.9899495   0.7071068  )
        98        Ge     tau(  98) = (  -0.7071068   0.9899495   0.8485281  )
        99        Ge     tau(  99) = (  -0.8485281   0.9899495   0.9899495  )
       100        Ge     tau( 100) = (  -0.9899495   0.9899495   1.1313708  )
       101        Ge     tau( 101) = (  -0.5656854   0.5656854   0.0000000  )
       102        Ge     tau( 102) = (  -0.7071068   0.5656854   0.1414214  )
       103        Ge     tau( 103) = (  -0.8485281   0.5656854   0.2828427  )
       104        Ge     tau( 104) = (  -0.9899495   0.5656854   0.4242641  )
       105        Ge     tau( 105) = (  -1.1313708   0.5656854   0.5656854  )
       106        Ge     tau( 106) = (  -0.5656854   0.7071068   0.1414214  )
       107        Ge     tau( 107) = (  -0.7071068   0.7071068   0.2828427  )
       108        Ge     tau( 108) = (  -0.8485281   0.7071068   0.4242641  )
       109        Ge     tau( 109) = (  -0.9899495   0.7071068   0.5656854  )
       110        Ge     tau( 110) = (  -1.1313708   0.7071068   0.7071068  )
       111        Ge     tau( 111) = (  -0.5656854   0.8485281   0.2828427  )
       112        Ge     tau( 112) = (  -0.7071068   0.8485281   0.4242641  )
       113        Ge     tau( 113) = (  -0.8485281   0.8485281   0.5656854  )
       114        Ge     tau( 114) = (  -0.9899495   0.8485281   0.7071068  )
       115        Ge     tau( 115) = (  -1.1313708   0.8485281   0.8485281  )
       116        Ge     tau( 116) = (  -0.5656854   0.9899495   0.4242641  )
       117        Ge     tau( 117) = (  -0.7071068   0.9899495   0.5656854  )
       118        Ge     tau( 118) = (  -0.8485281   0.9899495   0.7071068  )
       119        Ge     tau( 119) = (  -0.9899495   0.9899495   0.8485281  )
       120        Ge     tau( 120) = (  -1.1313708   0.9899495   0.9899495  )
       121        Ge     tau( 121) = (  -0.5656854   1.1313708   0.5656854  )
       122        Ge     tau( 122) = (  -0.7071068   1.1313708   0.7071068  )
       123        Ge     tau( 123) = (  -0.8485281   1.1313708   0.8485281  )
       124        Ge     tau( 124) = (  -0.9899495   1.1313708   0.9899495  )
       125        Ge     tau( 125) = (  -1.1313708   1.1313708   1.1313708  )
       126        Ge     tau( 126) = (  -0.0707107   0.0707107   0.0707107  )
       127        Ge     tau( 127) = (  -0.2121320   0.0707107   0.2121320  )
       128        Ge     tau( 128) = (  -0.3535534   0.0707107   0.3535534  )
       129        Ge     tau( 129) = (  -0.4949747   0.0707107   0.4949747  )
       130        Ge     tau( 130) = (  -0.6363961   0.0707107   0.6363961  )
       131        Ge     tau( 131) = (  -0.0707107   0.2121320   0.2121320  )
       132        Ge     tau( 132) = (  -0.2121320   0.2121320   0.3535534  )
       133        Ge     tau( 133) = (  -0.3535534   0.2121320   0.4949747  )
       134        Ge     tau( 134) = (  -0.4949747   0.2121320   0.6363961  )
       135        Ge     tau( 135) = (  -0.6363961   0.2121320   0.7778175  )
       136        Ge     tau( 136) = (  -0.0707107   0.3535534   0.3535534  )
       137        Ge     tau( 137) = (  -0.2121320   0.3535534   0.4949747  )
       138        Ge     tau( 138) = (  -0.3535534   0.3535534   0.6363961  )
       139        Ge     tau( 139) = (  -0.4949747   0.3535534   0.7778175  )
       140        Ge     tau( 140) = (  -0.6363961   0.3535534   0.9192388  )
       141        Ge     tau( 141) = (  -0.0707107   0.4949747   0.4949747  )
       142        Ge     tau( 142) = (  -0.2121320   0.4949747   0.6363961  )
       143        Ge     tau( 143) = (  -0.3535534   0.4949747   0.7778175  )
       144        Ge     tau( 144) = (  -0.4949747   0.4949747   0.9192388  )
       145        Ge     tau( 145) = (  -0.6363961   0.4949747   1.0606602  )
       146        Ge     tau( 146) = (  -0.0707107   0.6363961   0.6363961  )
       147        Ge     tau( 147) = (  -0.2121320   0.6363961   0.7778175  )
       148        Ge     tau( 148) = (  -0.3535534   0.6363961   0.9192388  )
       149        Ge     tau( 149) = (  -0.4949747   0.6363961   1.0606602  )
       150        Ge     tau( 150) = (  -0.6363961   0.6363961   1.2020815  )
       151        Ge     tau( 151) = (  -0.2121320   0.2121320   0.0707107  )
       152        Ge     tau( 152) = (  -0.3535534   0.2121320   0.2121320  )
       153        Ge     tau( 153) = (  -0.4949747   0.2121320   0.3535534  )
       154        Ge     tau( 154) = (  -0.6363961   0.2121320   0.4949747  )
       155        Ge     tau( 155) = (  -0.7778175   0.2121320   0.6363961  )
       156        Ge     tau( 156) = (  -0.2121320   0.3535534   0.2121320  )
       157        Ge     tau( 157) = (  -0.3535534   0.3535534   0.3535534  )
       158        Ge     tau( 158) = (  -0.4949747   0.3535534   0.4949747  )
       159        Ge     tau( 159) = (  -0.6363961   0.3535534   0.6363961  )
       160        Ge     tau( 160) = (  -0.7778175   0.3535534   0.7778175  )
       161        Ge     tau( 161) = (  -0.2121320   0.4949747   0.3535534  )
       162        Ge     tau( 162) = (  -0.3535534   0.4949747   0.4949747  )
       163        Ge     tau( 163) = (  -0.4949747   0.4949747   0.6363961  )
       164        Ge     tau( 164) = (  -0.6363961   0.4949747   0.7778175  )
       165        Ge     tau( 165) = (  -0.7778175   0.4949747   0.9192388  )
       166        Ge     tau( 166) = (  -0.2121320   0.6363961   0.4949747  )
       167        Ge     tau( 167) = (  -0.3535534   0.6363961   0.6363961  )
       168        Ge     tau( 168) = (  -0.4949747   0.6363961   0.7778175  )
       169        Ge     tau( 169) = (  -0.6363961   0.6363961   0.9192388  )
       170        Ge     tau( 170) = (  -0.7778175   0.6363961   1.0606602  )
       171        Ge     tau( 171) = (  -0.2121320   0.7778175   0.6363961  )
       172        Ge     tau( 172) = (  -0.3535534   0.7778175   0.7778175  )
       173        Ge     tau( 173) = (  -0.4949747   0.7778175   0.9192388  )
       174        Ge     tau( 174) = (  -0.6363961   0.7778175   1.0606602  )
       175        Ge     tau( 175) = (  -0.7778175   0.7778175   1.2020815  )
       176        Ge     tau( 176) = (  -0.3535534   0.3535534   0.0707107  )
       177        Ge     tau( 177) = (  -0.4949747   0.3535534   0.2121320  )
       178        Ge     tau( 178) = (  -0.6363961   0.3535534   0.3535534  )
       179        Ge     tau( 179) = (  -0.7778175   0.3535534   0.4949747  )
       180        Ge     tau( 180) = (  -0.9192388   0.3535534   0.6363961  )
       181        Ge     tau( 181) = (  -0.3535534   0.4949747   0.2121320  )
       182        Ge     tau( 182) = (  -0.4949747   0.4949747   0.3535534  )
       183        Ge     tau( 183) = (  -0.6363961   0.4949747   0.4949747  )
       184        Ge     tau( 184) = (  -0.7778175   0.4949747   0.6363961  )
       185        Ge     tau( 185) = (  -0.9192388   0.4949747   0.7778175  )
       186        Ge     tau( 186) = (  -0.3535534   0.6363961   0.3535534  )
       187        Ge     tau( 187) = (  -0.4949747   0.6363961   0.4949747  )
       188        Ge     tau( 188) = (  -0.6363961   0.6363961   0.6363961  )
       189        Ge     tau( 189) = (  -0.7778175   0.6363961   0.7778175  )
       190        Ge     tau( 190) = (  -0.9192388   0.6363961   0.9192388  )
       191        Ge     tau( 191) = (  -0.3535534   0.7778175   0.4949747  )
       192        Ge     tau( 192) = (  -0.4949747   0.7778175   0.6363961  )
       193        Ge     tau( 193) = (  -0.6363961   0.7778175   0.7778175  )
       194        Ge     tau( 194) = (  -0.7778175   0.7778175   0.9192388  )
       195        Ge     tau( 195) = (  -0.9192388   0.7778175   1.0606602  )
       196        Ge     tau( 196) = (  -0.3535534   0.9192388   0.6363961  )
       197        Ge     tau( 197) = (  -0.4949747   0.9192388   0.7778175  )
       198        Ge     tau( 198) = (  -0.6363961   0.9192388   0.9192388  )
       199        Ge     tau( 199) = (  -0.7778175   0.9192388   1.0606602  )
       200        Ge     tau( 200) = (  -0.9192388   0.9192388   1.2020815  )
       201        Ge     tau( 201) = (  -0.4949747   0.4949747   0.0707107  )
       202        Ge     tau( 202) = (  -0.6363961   0.4949747   0.2121320  )
       203        Ge     tau( 203) = (  -0.7778175   0.4949747   0.3535534  )
       204        Ge     tau( 204) = (  -0.9192388   0.4949747   0.4949747  )
       205        Ge     tau( 205) = (  -1.0606602   0.4949747   0.6363961  )
       206        Ge     tau( 206) = (  -0.4949747   0.6363961   0.2121320  )
       207        Ge     tau( 207) = (  -0.6363961   0.6363961   0.3535534  )
       208        Ge     tau( 208) = (  -0.7778175   0.6363961   0.4949747  )
       209        Ge     tau( 209) = (  -0.9192388   0.6363961   0.6363961  )
       210        Ge     tau( 210) = (  -1.0606602   0.6363961   0.7778175  )
       211        Ge     tau( 211) = (  -0.4949747   0.7778175   0.3535534  )
       212        Ge     tau( 212) = (  -0.6363961   0.7778175   0.4949747  )
       213        Ge     tau( 213) = (  -0.7778175   0.7778175   0.6363961  )
       214        Ge     tau( 214) = (  -0.9192388   0.7778175   0.7778175  )
       215        Ge     tau( 215) = (  -1.0606602   0.7778175   0.9192388  )
       216        Ge     tau( 216) = (  -0.4949747   0.9192388   0.4949747  )
       217        Ge     tau( 217) = (  -0.6363961   0.9192388   0.6363961  )
       218        Ge     tau( 218) = (  -0.7778175   0.9192388   0.7778175  )
       219        Ge     tau( 219) = (  -0.9192388   0.9192388   0.9192388  )
       220        Ge     tau( 220) = (  -1.0606602   0.9192388   1.0606602  )
       221        Ge     tau( 221) = (  -0.4949747   1.0606602   0.6363961  )
       222        Ge     tau( 222) = (  -0.6363961   1.0606602   0.7778175  )
       223        Ge     tau( 223) = (  -0.7778175   1.0606602   0.9192388  )
       224        Ge     tau( 224) = (  -0.9192388   1.0606602   1.0606602  )
       225        Ge     tau( 225) = (  -1.0606602   1.0606602   1.2020815  )
       226        Ge     tau( 226) = (  -0.6363961   0.6363961   0.0707107  )
       227        Ge     tau( 227) = (  -0.7778175   0.6363961   0.2121320  )
       228        Ge     tau( 228) = (  -0.9192388   0.6363961   0.3535534  )
       229        Ge     tau( 229) = (  -1.0606602   0.6363961   0.4949747  )
       230        Ge     tau( 230) = (  -1.2020815   0.6363961   0.6363961  )
       231        Ge     tau( 231) = (  -0.6363961   0.7778175   0.2121320  )
       232        Ge     tau( 232) = (  -0.7778175   0.7778175   0.3535534  )
       233        Ge     tau( 233) = (  -0.9192388   0.7778175   0.4949747  )
       234        Ge     tau( 234) = (  -1.0606602   0.7778175   0.6363961  )
       235        Ge     tau( 235) = (  -1.2020815   0.7778175   0.7778175  )
       236        Ge     tau( 236) = (  -0.6363961   0.9192388   0.3535534  )
       237        Ge     tau( 237) = (  -0.7778175   0.9192388   0.4949747  )
       238        Ge     tau( 238) = (  -0.9192388   0.9192388   0.6363961  )
       239        Ge     tau( 239) = (  -1.0606602   0.9192388   0.7778175  )
       240        Ge     tau( 240) = (  -1.2020815   0.9192388   0.9192388  )
       241        Ge     tau( 241) = (  -0.6363961   1.0606602   0.4949747  )
       242        Ge     tau( 242) = (  -0.7778175   1.0606602   0.6363961  )
       243        Ge     tau( 243) = (  -0.9192388   1.0606602   0.7778175  )
       244        Ge     tau( 244) = (  -1.0606602   1.0606602   0.9192388  )
       245        Ge     tau( 245) = (  -1.2020815   1.0606602   1.0606602  )
       246        Ge     tau( 246) = (  -0.6363961   1.2020815   0.6363961  )
       247        Ge     tau( 247) = (  -0.7778175   1.2020815   0.7778175  )
       248        Ge     tau( 248) = (  -0.9192388   1.2020815   0.9192388  )
       249        Ge     tau( 249) = (  -1.0606602   1.2020815   1.0606602  )
       250        Ge     tau( 250) = (  -1.2020815   1.2020815   1.2020815  )

     number of k points=     6  Gaussian smearing, width (Ry)=  0.0010
                       cart. coord. in units 2pi/alat
        k(    1) = (   0.0000000   0.0000000   0.0000000), wk =   0.2500000
        k(    2) = (   0.3535534  -0.3535534   0.3535534), wk =   0.5000000
        k(    3) = (   0.0000000  -0.7071068   0.0000000), wk =   0.2500000
        k(    4) = (   0.3535534   0.3535534  -0.3535534), wk =   0.2500000
        k(    5) = (   0.3535534  -0.3535534  -0.3535534), wk =   0.2500000
        k(    6) = (  -0.7071068   0.0000000   0.0000000), wk =   0.5000000

     Dense  grid:  3912911 G-vectors     FFT dimensions: ( 225, 225, 225)

     Estimated max dynamical RAM per process >       2.13 GB

     Estimated total dynamical RAM >     917.08 GB

     Initial potential from superposition of free atoms

     starting charge    3499.7884, renormalised to    3500.0000
     Starting wfcs are 4500 randomized atomic wfcs
     Checking if some PAW data can be deallocated... 

     total cpu time spent up to now is      155.5 secs

     Self-consistent Calculation

     iteration #  1     ecut=    80.00 Ry     beta= 0.70
     Davidson diagonalization with overlap
     ethr =  1.00E-02,  avg # of iterations =  4.5

     Threshold (ethr) on eigenvalues was too large:
     Diagonalizing with lowered threshold

     Davidson diagonalization with overlap
     ethr =  8.68E-05,  avg # of iterations = 23.2

     total cpu time spent up to now is     1010.7 secs

     total energy              =  -78884.50631351 Ry
     estimated scf accuracy    <       4.01764328 Ry

     iteration #  2     ecut=    80.00 Ry     beta= 0.70
     Davidson diagonalization with overlap
     ethr =  1.15E-04,  avg # of iterations =  2.2

     total cpu time spent up to now is     1229.1 secs

     total energy              =  -78884.74859125 Ry
     estimated scf accuracy    <       0.49897198 Ry

     iteration #  3     ecut=    80.00 Ry     beta= 0.70
     Davidson diagonalization with overlap
     ethr =  1.43E-05,  avg # of iterations = 19.5

     total cpu time spent up to now is     1730.0 secs

     total energy              =  -78884.52833338 Ry
     estimated scf accuracy    <       2.81314018 Ry

     iteration #  4     ecut=    80.00 Ry     beta= 0.70
     Davidson diagonalization with overlap
     c_bands:  3 eigenvalues not converged
     ethr =  1.43E-05,  avg # of iterations = 15.5

     total cpu time spent up to now is     2081.5 secs

     total energy              =  -78884.85374235 Ry
     estimated scf accuracy    <       1.09415421 Ry

     iteration #  5     ecut=    80.00 Ry     beta= 0.70
     Davidson diagonalization with overlap
     ethr =  1.43E-05,  avg # of iterations = 14.8

     total cpu time spent up to now is     2344.0 secs

     total energy              =  -78884.97277956 Ry
     estimated scf accuracy    <       0.09441693 Ry

     iteration #  6     ecut=    80.00 Ry     beta= 0.70
     Davidson diagonalization with overlap
     ethr =  2.70E-06,  avg # of iterations = 15.3

     total cpu time spent up to now is     2794.1 secs

     total energy              =  -78884.98822492 Ry
     estimated scf accuracy    <       0.02362950 Ry

     iteration #  7     ecut=    80.00 Ry     beta= 0.70
     Davidson diagonalization with overlap
     ethr =  6.75E-07,  avg # of iterations =  6.0

     total cpu time spent up to now is     3014.0 secs

     total energy              =  -78884.99139744 Ry
     estimated scf accuracy    <       0.01740149 Ry

     iteration #  8     ecut=    80.00 Ry     beta= 0.70
     Davidson diagonalization with overlap
     ethr =  4.97E-07,  avg # of iterations =  2.0

     total cpu time spent up to now is     3211.6 secs

     total energy              =  -78884.99367205 Ry
     estimated scf accuracy    <       0.00225582 Ry

     iteration #  9     ecut=    80.00 Ry     beta= 0.70
     Davidson diagonalization with overlap
     ethr =  6.45E-08,  avg # of iterations =  3.3

     total cpu time spent up to now is     3420.2 secs

     total energy              =  -78884.99409131 Ry
     estimated scf accuracy    <       0.00054165 Ry

     iteration # 10     ecut=    80.00 Ry     beta= 0.70
     Davidson diagonalization with overlap
     ethr =  1.55E-08,  avg # of iterations =  4.0

     total cpu time spent up to now is     3631.2 secs

     total energy              =  -78884.99419772 Ry
     estimated scf accuracy    <       0.00014970 Ry

     iteration # 11     ecut=    80.00 Ry     beta= 0.70
     Davidson diagonalization with overlap
     ethr =  4.28E-09,  avg # of iterations =  4.0

     total cpu time spent up to now is     3848.0 secs

     total energy              =  -78884.99421637 Ry
     estimated scf accuracy    <       0.00030963 Ry

     iteration # 12     ecut=    80.00 Ry     beta= 0.70
     Davidson diagonalization with overlap
     ethr =  4.28E-09,  avg # of iterations =  3.3

     total cpu time spent up to now is     4050.8 secs

     total energy              =  -78884.99425508 Ry
     estimated scf accuracy    <       0.00002381 Ry

     iteration # 13     ecut=    80.00 Ry     beta= 0.70
     Davidson diagonalization with overlap
     ethr =  6.80E-10,  avg # of iterations =  4.0

     total cpu time spent up to now is     4261.0 secs

     total energy              =  -78884.99426031 Ry
     estimated scf accuracy    <       0.00000220 Ry

     iteration # 14     ecut=    80.00 Ry     beta= 0.70
     Davidson diagonalization with overlap
     ethr =  6.29E-11,  avg # of iterations =  4.5

     total cpu time spent up to now is     4576.3 secs

     total energy              =  -78884.99426096 Ry
     estimated scf accuracy    <       0.00000595 Ry

     iteration # 15     ecut=    80.00 Ry     beta= 0.70
     Davidson diagonalization with overlap
     ethr =  6.29E-11,  avg # of iterations =  3.3

     total cpu time spent up to now is     4782.7 secs

     total energy              =  -78884.99426176 Ry
     estimated scf accuracy    <       0.00000147 Ry

     iteration # 16     ecut=    80.00 Ry     beta= 0.70
     Davidson diagonalization with overlap
     ethr =  4.19E-11,  avg # of iterations =  2.0

     total cpu time spent up to now is     4983.8 secs

     total energy              =  -78884.99426197 Ry
     estimated scf accuracy    <       0.00000021 Ry

     iteration # 17     ecut=    80.00 Ry     beta= 0.70
     Davidson diagonalization with overlap
     ethr =  6.06E-12,  avg # of iterations =  4.0

     total cpu time spent up to now is     5220.6 secs

     total energy              =  -78884.99426202 Ry
     estimated scf accuracy    <       0.00000015 Ry

     iteration # 18     ecut=    80.00 Ry     beta= 0.70
     Davidson diagonalization with overlap
     ethr =  4.19E-12,  avg # of iterations =  2.0

     total cpu time spent up to now is     5420.4 secs

     total energy              =  -78884.99426204 Ry
     estimated scf accuracy    <       0.00000006 Ry

     iteration # 19     ecut=    80.00 Ry     beta= 0.70
     Davidson diagonalization with overlap
     ethr =  1.65E-12,  avg # of iterations =  2.0

     total cpu time spent up to now is     5620.8 secs

     total energy              =  -78884.99426205 Ry
     estimated scf accuracy    <          8.1E-09 Ry

     iteration # 20     ecut=    80.00 Ry     beta= 0.70
     Davidson diagonalization with overlap
     ethr =  2.32E-13,  avg # of iterations =  4.0

     total cpu time spent up to now is     5886.7 secs

     total energy              =  -78884.99426205 Ry
     estimated scf accuracy    <          6.9E-09 Ry

     iteration # 21     ecut=    80.00 Ry     beta= 0.70
     Davidson diagonalization with overlap
     ethr =  1.96E-13,  avg # of iterations =  2.0

     total cpu time spent up to now is     6084.9 secs

     total energy              =  -78884.99426205 Ry
     estimated scf accuracy    <          1.8E-09 Ry

     iteration # 22     ecut=    80.00 Ry     beta= 0.70
     Davidson diagonalization with overlap
     ethr =  1.00E-13,  avg # of iterations =  2.0

     total cpu time spent up to now is     6281.5 secs

     total energy              =  -78884.99426205 Ry
     estimated scf accuracy    <          7.3E-10 Ry

     iteration # 23     ecut=    80.00 Ry     beta= 0.70
     Davidson diagonalization with overlap
     ethr =  1.00E-13,  avg # of iterations =  1.2

     total cpu time spent up to now is     6476.0 secs

     total energy              =  -78884.99426205 Ry
     estimated scf accuracy    <          5.4E-10 Ry

     iteration # 24     ecut=    80.00 Ry     beta= 0.70
     Davidson diagonalization with overlap
     ethr =  1.00E-13,  avg # of iterations =  1.0

     total cpu time spent up to now is     6645.8 secs

     End of self-consistent calculation

          k = 0.0000 0.0000 0.0000 (488897 PWs)   bands (ev):

   -15.0745 -15.0744 -15.0743 -15.0742 -15.0742 -15.0742 -15.0742 -15.0742
   -15.0742 -15.0741 -15.0741 -15.0741 -15.0733 -15.0732 -15.0731 -15.0730
   -15.0730 -15.0730 -15.0730 -15.0729 -15.0729 -15.0729 -15.0729 -15.0729
   -15.0729 -15.0729 -15.0728 -15.0728 -15.0728 -15.0728 -15.0728 -15.0728
   -15.0727 -15.0727 -15.0727 -15.0726 -15.0715 -15.0714 -15.0714 -15.0713
   -15.0713 -15.0713 -15.0713 -15.0713 -15.0713 -15.0712 -15.0712 -15.0712
   -15.0712 -15.0712 -15.0712 -15.0712 -15.0712 -15.0712 -15.0712 -15.0712
   -15.0712 -15.0711 -15.0710 -15.0709 -15.0687 -15.0686 -15.0685 -15.0685
   -15.0685 -15.0684 -15.0684 -15.0684 -15.0684 -15.0684 -15.0684 -15.0684
   -15.0684 -15.0684 -15.0683 -15.0683 -15.0683 -15.0683 -15.0683 -15.0683
   -15.0682 -15.0682 -15.0682 -15.0681 -15.0645 -15.0644 -15.0644 -15.0643
   -15.0643 -15.0642 -15.0642 -15.0642 -15.0642 -15.0642 -15.0642 -15.0642
   -15.0642 -15.0642 -15.0641 -15.0641 -15.0641 -15.0641 -15.0641 -15.0641
   -15.0640 -15.0640 -15.0639 -15.0639 -15.0631 -15.0631 -15.0630 -15.0630
   -15.0630 -15.0630 -15.0630 -15.0630 -15.0629 -15.0629 -15.0629 -15.0628
   -15.0607 -15.0606 -15.0606 -15.0605 -15.0605 -15.0605 -15.0604 -15.0604
   -15.0604 -15.0604 -15.0604 -15.0604 -15.0604 -15.0604 -15.0604 -15.0604
   -15.0604 -15.0604 -15.0604 -15.0604 -15.0603 -15.0603 -15.0603 -15.0603
   -15.0600 -15.0600 -15.0600 -15.0600 -15.0600 -15.0599 -15.0599 -15.0599
   -15.0599 -15.0599 -15.0598 -15.0598 -15.0582 -15.0581 -15.0581 -15.0580
   -15.0580 -15.0580 -15.0580 -15.0580 -15.0580 -15.0580 -15.0580 -15.0580
   -15.0580 -15.0580 -15.0580 -15.0579 -15.0579 -15.0579 -15.0579 -15.0579
   -15.0579 -15.0578 -15.0578 -15.0577 -15.0545 -15.0544 -15.0543 -15.0543
   -15.0543 -15.0543 -15.0543 -15.0543 -15.0542 -15.0542 -15.0542 -15.0542
   -15.0542 -15.0542 -15.0542 -15.0542 -15.0542 -15.0542 -15.0542 -15.0542
   -15.0541 -15.0541 -15.0541 -15.0540 -15.0535 -15.0534 -15.0534 -15.0534
   -15.0534 -15.0533 -15.0533 -15.0533 -15.0533 -15.0533 -15.0533 -15.0533
   -15.0533 -15.0532 -15.0532 -15.0530 -15.0455 -15.0455 -15.0455 -15.0454
   -15.0454 -15.0454 -15.0453 -15.0453 -15.0453 -15.0453 -15.0453 -15.0453
   -15.0453 -15.0452 -15.0452 -15.0452 -15.0443 -15.0443 -15.0443 -15.0442
   -15.0442 -15.0442 -15.0442 -15.0442 -15.0442 -15.0441 -15.0441 -15.0441
   -15.0395 -15.0395 -15.0395 -15.0395 -15.0395 -15.0394 -15.0330 -15.0330
   -15.0330 -15.0278 -15.0278 -15.0277 -15.0277 -15.0277 -15.0277 -15.0277
   -15.0276 -15.0190 -15.0189 -15.0189 -15.0189 -15.0189 -15.0189 -15.0188
   -15.0188 -15.0150 -15.0150 -15.0149 -15.0149 -15.0149 -15.0149 -15.0149
   -15.0149 -15.0148 -15.0148 -15.0148 -15.0148 -15.0148 -15.0148 -15.0148
   -15.0148 -15.0148 -15.0148 -15.0148 -15.0148 -15.0148 -15.0147 -15.0147
   -15.0146 -15.0141 -15.0141 -15.0141 -15.0140 -15.0140 -15.0140 -15.0095
   -15.0095 -15.0095 -15.0094 -15.0094 -15.0094 -15.0094 -15.0094 -15.0094
   -15.0094 -15.0094 -15.0093 -15.0006 -15.0006 -14.9941 -14.9940 -14.9939
   -14.9939 -14.9939 -14.9938 -14.9938 -14.9938 -14.9938 -14.9938 -14.9938
   -14.9938 -14.9938 -14.9938 -14.9938 -14.9938 -14.9938 -14.9938 -14.9938
   -14.9937 -14.9937 -14.9937 -14.9936 -14.9935 -14.9856 -14.9855 -14.9855
   -14.9855 -14.9855 -14.9855 -14.9855 -14.9855 -14.9855 -14.9855 -14.9855
   -14.9854 -14.9822 -14.9822 -14.9821 -14.9821 -14.9821 -14.9820 -14.9820
   -14.9820 -14.9820 -14.9820 -14.9820 -14.9820 -14.9819 -14.9819 -14.9819
   -14.9819 -14.9817 -14.9817 -14.9817 -14.9816 -14.9816 -14.9816 -14.9803
   -14.9802 -14.9802 -14.9802 -14.9802 -14.9802 -14.9802 -14.9802 -14.9802
   -14.9801 -14.9801 -14.9801 -14.9801 -14.9801 -14.9801 -14.9801 -14.9801
   -14.9801 -14.9800 -14.9800 -14.9800 -14.9800 -14.9800 -14.9799 -14.9731
   -14.9730 -14.9730 -14.9729 -14.9729 -14.9729 -14.9729 -14.9729 -14.9729
   -14.9729 -14.9728 -14.9728 -14.9665 -14.9665 -14.9664 -14.9664 -14.9664
   -14.9664 -14.9664 -14.9664 -14.9663 -14.9663 -14.9663 -14.9663 -14.9663
   -14.9663 -14.9662 -14.9662 -14.9598 -14.9598 -14.9596 -14.9596 -14.9596
   -14.9596 -14.9596 -14.9596 -14.9596 -14.9596 -14.9596 -14.9596 -14.9596
   -14.9596 -14.9595 -14.9595 -14.9595 -14.9595 -14.9595 -14.9595 -14.9595
   -14.9595 -14.9593 -14.9593 -14.9589 -14.9589 -14.9589 -14.9589 -14.9589
   -14.9589 -14.9537 -14.9537 -14.9537 -14.9536 -14.9536 -14.9536 -14.9536
   -14.9536 -14.9536 -14.9536 -14.9535 -14.9535 -14.9523 -14.9523 -14.9523
   -14.9523 -14.9523 -14.9522 -14.9505 -14.9505 -14.9505 -14.9505 -14.9505
   -14.9504 -14.9504 -14.9504 -14.9504 -14.9504 -14.9504 -14.9503 -14.9494
   -14.9494 -14.9494 -14.9493 -14.9493 -14.9493 -14.9493 -14.9493 -14.9493
   -14.9493 -14.9493 -14.9493 -14.9493 -14.9493 -14.9493 -14.9493 -14.9492
   -14.9492 -14.9492 -14.9492 -14.9492 -14.9492 -14.9491 -14.9491 -14.9423
   -14.9423 -14.9423 -14.9422 -14.9422 -14.9422 -14.9422 -14.9422 -14.9422
   -14.9422 -14.9422 -14.9422 -14.9422 -14.9422 -14.9421 -14.9421 -14.9421
   -14.9421 -14.9421 -14.9421 -14.9421 -14.9420 -14.9420 -14.9420 -14.9361
   -14.9361 -14.9361 -14.9360 -14.9360 -14.9360 -14.9360 -14.9360 -14.9360
   -14.9360 -14.9360 -14.9360 -14.9359 -14.9359 -14.9359 -14.9359 -14.9359
   -14.9359 -14.9359 -14.9359 -14.9359 -14.9359 -14.9359 -14.9359 -14.9355
   -14.9355 -14.9355 -14.9355 -14.9355 -14.9355 -14.9354 -14.9354 -14.9354
   -14.9354 -14.9354 -14.9354 -14.9354 -14.9354 -14.9354 -14.9354 -14.9354
   -14.9353 -14.9353 -14.9353 -14.9353 -14.9353 -14.9352 -14.9351 -14.9331
   -14.9331 -14.9331 -14.9331 -14.9330 -14.9330 -14.9255 -14.9255 -14.9255
   -14.9255 -14.9255 -14.9254 -14.9254 -14.9254 -14.9254 -14.9254 -14.9254
   -14.9254 -14.9254 -14.9254 -14.9254 -14.9253 -14.9253 -14.9253 -14.9253
   -14.9253 -14.9253 -14.9253 -14.9253 -14.9252 -14.9101 -14.9101 -14.9101
   -14.9101 -14.9100 -14.9100 -14.9100 -14.9100 -14.9100 -14.9100 -14.9099
   -14.9099 -14.9070 -14.9070 -14.9069 -14.9069 -14.9069 -14.9069 -14.9069
   -14.9069 -14.9069 -14.9069 -14.9069 -14.9069 -14.9069 -14.9069 -14.9069
   -14.9068 -14.9068 -14.9068 -14.9068 -14.9068 -14.9068 -14.9068 -14.9067
   -14.9067 -14.8998 -14.8998 -14.8998 -14.8997 -14.8997 -14.8997 -14.8997
   -14.8997 -14.8997 -14.8997 -14.8996 -14.8996 -14.8983 -14.8982 -14.8982
   -14.8982 -14.8982 -14.8982 -14.8982 -14.8982 -14.8982 -14.8982 -14.8982
   -14.8982 -14.8982 -14.8982 -14.8982 -14.8982 -14.8982 -14.8982 -14.8981
   -14.8981 -14.8981 -14.8981 -14.8981 -14.8981 -14.8889 -14.8888 -14.8888
   -14.8888 -14.8888 -14.8888 -14.8880 -14.8880 -14.8880 -14.8880 -14.8880
   -14.8880 -14.8880 -14.8879 -14.8879 -14.8879 -14.8879 -14.8879 -14.8809
   -14.8809 -14.8808 -14.8808 -14.8808 -14.8808 -14.8808 -14.8808 -14.8808
   -14.8807 -14.8807 -14.8807 -14.8807 -14.8807 -14.8807 -14.8807 -14.8807
   -14.8807 -14.8807 -14.8807 -14.8807 -14.8806 -14.8806 -14.8806 -14.8785
   -14.8785 -14.8785 -14.8785 -14.8785 -14.8785 -14.8785 -14.8785 -14.8784
   -14.8784 -14.8784 -14.8784 -14.8784 -14.8784 -14.8784 -14.8784 -14.8784
   -14.8784 -14.8784 -14.8784 -14.8784 -14.8784 -14.8784 -14.8783 -14.8759
   -14.8759 -14.8759 -14.8759 -14.8759 -14.8759 -14.8746 -14.8745 -14.8745
   -14.8745 -14.8745 -14.8745 -14.8734 -14.8734 -14.8733 -14.8733 -14.8733
   -14.8733 -14.8733 -14.8732 -14.8732 -14.8732 -14.8732 -14.8732 -14.8732
   -14.8732 -14.8732 -14.8732 -14.8732 -14.8732 -14.8732 -14.8732 -14.8731
   -14.8731 -14.8731 -14.8730 -14.8676 -14.8676 -14.8675 -14.8675 -14.8675
   -14.8675 -14.8675 -14.8675 -14.8675 -14.8675 -14.8674 -14.8674 -14.8596
   -14.8596 -14.8596 -14.8595 -14.8595 -14.8595 -14.8595 -14.8595 -14.8595
   -14.8595 -14.8595 -14.8595 -14.8595 -14.8594 -14.8594 -14.8594 -14.8594
   -14.8594 -14.8594 -14.8594 -14.8594 -14.8594 -14.8593 -14.8593 -14.8554
   -14.8553 -14.8553 -14.8553 -14.8553 -14.8553 -14.8553 -14.8552 -14.8552
   -14.8552 -14.8552 -14.8552 -14.8518 -14.8518 -14.8517 -14.8517 -14.8516
   -14.8516 -14.8516 -14.8516 -14.8516 -14.8516 -14.8516 -14.8516 -14.8516
   -14.8516 -14.8516 -14.8515 -14.8515 -14.8515 -14.8515 -14.8515 -14.8515
   -14.8515 -14.8515 -14.8515 -14.8515 -14.8515 -14.8515 -14.8515 -14.8515
   -14.8514 -14.8514 -14.8514 -14.8514 -14.8514 -14.8514 -14.8514 -14.8514
   -14.8514 -14.8514 -14.8514 -14.8514 -14.8514 -14.8514 -14.8514 -14.8514
   -14.8514 -14.8513 -14.8513 -14.8513 -14.8513 -14.8513 -14.8512 -14.8512
   -14.8512 -14.8512 -14.8512 -14.8512 -14.8512 -14.8512 -14.8512 -14.8506
   -14.8506 -14.8506 -14.8506 -14.8505 -14.8505 -14.8505 -14.8505 -14.8505
   -14.8505 -14.8505 -14.8505 -14.8504 -14.8504 -14.8503 -14.8503 -14.8391
   -14.8391 -14.8391 -14.8391 -14.8391 -14.8391 -14.8390 -14.8390 -14.8390
   -14.8390 -14.8390 -14.8390 -14.8390 -14.8390 -14.8390 -14.8390 -14.8364
   -14.8364 -14.8363 -14.8363 -14.8363 -14.8363 -14.8362 -14.8362 -14.8348
   -14.8347 -14.8347 -14.8347 -14.8347 -14.8347 -14.8347 -14.8347 -14.8347
   -14.8347 -14.8346 -14.8346 -14.8284 -14.8283 -14.8283 -14.8283 -14.8283
   -14.8282 -14.8276 -14.8276 -14.8276 -14.8276 -14.8275 -14.8275 -14.8275
   -14.8275 -14.8275 -14.8275 -14.8275 -14.8275 -14.8275 -14.8275 -14.8275
   -14.8275 -14.8275 -14.8275 -14.8275 -14.8274 -14.8274 -14.8274 -14.8274
   -14.8274 -14.8263 -14.8263 -14.8262 -14.8262 -14.8262 -14.8262 -14.8262
   -14.8262 -14.8259 -14.8259 -14.8259 -14.8259 -14.8259 -14.8258 -14.8203
   -14.8203 -14.8202 -14.8109 -14.8109 -14.8035 -14.8035 -14.8034 -14.8034
   -14.8034 -14.8034 -14.8034 -14.8034 -14.8034 -14.8034 -14.8033 -14.8033
   -14.7966 -14.7966 -14.7966 -14.7966 -14.7966 -14.7965 -14.7957 -14.7956
   -14.7956 -14.7956 -14.7956 -14.7956 -14.7956 -14.7956 -14.7956 -14.7955
   -14.7955 -14.7955 -14.7955 -14.7955 -14.7955 -14.7955 -14.7876 -14.7875
   -14.7874 -14.7874 -14.7874 -14.7874 -14.7874 -14.7874 -14.7874 -14.7874
   -14.7873 -14.7873 -14.7873 -14.7873 -14.7873 -14.7873 -14.7873 -14.7873
   -14.7873 -14.7873 -14.7873 -14.7873 -14.7873 -14.7873 -14.7872 -14.7872
   -14.7872 -14.7872 -14.7872 -14.7872 -14.7872 -14.7872 -14.7872 -14.7871
   -14.7871 -14.7871 -14.7871 -14.7871 -14.7870 -14.7870 -14.7861 -14.7861
   -14.7861 -14.7861 -14.7861 -14.7861 -14.7861 -14.7861 -14.7860 -14.7860
   -14.7860 -14.7860 -14.7806 -14.7805 -14.7805 -14.7805 -14.7805 -14.7805
   -14.7805 -14.7805 -14.7805 -14.7805 -14.7805 -14.7804 -14.7787 -14.7786
   -14.7786 -14.7786 -14.7786 -14.7786 -14.7786 -14.7785 -14.7785 -14.7785
   -14.7785 -14.7785 -14.7782 -14.7781 -14.7781 -14.7781 -14.7781 -14.7781
   -14.7781 -14.7781 -14.7781 -14.7781 -14.7780 -14.7780 -14.7780 -14.7780
   -14.7780 -14.7780 -14.7780 -14.7780 -14.7780 -14.7780 -14.7780 -14.7779
   -14.7779 -14.7779 -14.7763 -14.7763 -14.7762 -14.7762 -14.7762 -14.7762
   -14.7762 -14.7762 -14.7761 -14.7761 -14.7761 -14.7761 -14.7761 -14.7761
   -14.7761 -14.7761 -14.7760 -14.7760 -14.7760 -14.7760 -14.7760 -14.7760
   -14.7759 -14.7759 -14.7742 -14.7742 -14.7742 -14.7741 -14.7741 -14.7741
   -14.7741 -14.7741 -14.7741 -14.7741 -14.7741 -14.7740 -14.7702 -14.7701
   -14.7701 -14.7701 -14.7700 -14.7700 -14.7700 -14.7700 -14.7700 -14.7700
   -14.7700 -14.7700 -14.7700 -14.7699 -14.7699 -14.7699 -14.7699 -14.7699
   -14.7699 -14.7699 -14.7698 -14.7698 -14.7698 -14.7698 -14.7689 -14.7689
   -14.7688 -14.7688 -14.7688 -14.7688 -14.7688 -14.7688 -14.7688 -14.7687
   -14.7687 -14.7687 -14.7687 -14.7687 -14.7687 -14.7687 -14.7687 -14.7687
   -14.7687 -14.7687 -14.7687 -14.7686 -14.7686 -14.7686 -14.7661 -14.7661
   -14.7661 -14.7661 -14.7660 -14.7660 -14.7660 -14.7660 -14.7660 -14.7659
   -14.7659 -14.7659 -14.7659 -14.7659 -14.7659 -14.7659 -14.7659 -14.7659
   -14.7658 -14.7658 -14.7658 -14.7658 -14.7657 -14.7657 -14.7640 -14.7639
   -14.7639 -14.7639 -14.7639 -14.7639 -14.7639 -14.7639 -14.7639 -14.7639
   -14.7638 -14.7638  -2.6488  -2.1949  -2.1944  -2.1944  -2.1944  -2.1944
    -2.1943  -2.1943  -2.1938  -2.0356  -2.0352  -2.0352  -2.0352  -2.0352
    -2.0347  -1.4710  -1.4700  -1.4700  -1.4699  -1.4699  -1.4699  -1.4699
    -1.4699  -1.4699  -1.4698  -1.4698  -1.4688  -1.0472  -1.0447  -1.0447
    -1.0447  -1.0446  -1.0446  -1.0446  -1.0446  -1.0445  -1.0445  -1.0445
    -1.0445  -1.0445  -1.0445  -1.0445  -1.0445  -1.0445  -1.0445  -1.0445
    -1.0444  -1.0444  -1.0444  -1.0443  -1.0431  -1.0422  -1.0419  -1.0418
    -1.0418  -1.0418  -1.0418  -1.0418  -1.0403  -0.3383  -0.3363  -0.3362
    -0.3362  -0.3362  -0.3361  -0.3361  -0.3361  -0.3361  -0.3361  -0.3361
    -0.3361  -0.3361  -0.3361  -0.3360  -0.3360  -0.3360  -0.3360  -0.3360
    -0.3360  -0.3359  -0.3359  -0.3359  -0.3339  -0.2534  -0.2528  -0.2528
    -0.2528  -0.2528  -0.2522   0.0830   0.0852   0.0853   0.0853   0.0853
     0.0854   0.0854   0.0854   0.0854   0.0854   0.0854   0.0854   0.0854
     0.0855   0.0855   0.0855   0.0855   0.0855   0.0855   0.0855   0.0856
     0.0856   0.0856   0.0879   0.7383   0.7395   0.7395   0.7395   0.7395
     0.7395   0.7395   0.7396   0.7396   0.7396   0.7396   0.7408   1.3789
     1.3800   1.3801   1.3801   1.3801   1.3801   1.3801   1.3802   1.3802
     1.3802   1.3802   1.3813   2.1378   2.1400   2.1400   2.1400   2.1401
     2.1401   2.1401   2.1401   2.1401   2.1402   2.1402   2.1402   2.1402
     2.1402   2.1402   2.1402   2.1402   2.1403   2.1403   2.1403   2.1403
     2.1404   2.1404   2.1425   2.3473   2.3495   2.3496   2.3496   2.3497
     2.3497   2.3497   2.3497   2.3497   2.3498   2.3498   2.3498   2.3498
     2.3498   2.3498   2.3498   2.3498   2.3498   2.3499   2.3499   2.3499
     2.3500   2.3501   2.3523   2.4880   2.4885   2.4886   2.4886   2.4886
     2.4892   2.9267   2.9272   2.9274   2.9274   2.9274   2.9274   2.9275
     2.9281   3.4900   3.4919   3.4921   3.4921   3.4922   3.4922   3.4922
     3.4922   3.4922   3.4923   3.4923   3.4923   3.4923   3.4923   3.4923
     3.4923   3.4923   3.4923   3.4924   3.4924   3.4924   3.4925   3.4927
     3.4946   4.2502   4.2511   4.2511   4.2512   4.2512   4.2512   4.2512
     4.2512   4.2513   4.2513   4.2514   4.2523   5.8207   5.8212   5.8212
     5.8212   5.8212   5.8217   5.8572   5.8574   5.8576   5.8576   5.8577
     5.8577   5.8577   5.8577   5.8577   5.8578   5.8580   5.8581   5.8938
     5.8943   5.8945   5.8945   5.8945   5.8945   5.8946   5.8950   5.9061
     5.9063   5.9066   5.9069   5.9069   5.9069   5.9069   5.9069   5.9070
     5.9070   5.9070   5.9070   5.9070   5.9070   5.9071   5.9071   5.9071
     5.9071   5.9071   5.9071   5.9071   5.9075   5.9079   5.9080   6.2162
     6.2164   6.2167   6.2172   6.2172   6.2172   6.2172   6.2172   6.2172
     6.2173   6.2173   6.2173   6.2173   6.2173   6.2173   6.2173   6.2173
     6.2173   6.2173   6.2173   6.2174   6.2179   6.2181   6.2184   6.7753
     6.7756   6.7757   6.7759   6.7760   6.7760   6.7760   6.7760   6.7760
     6.7762   6.7764   6.7766   6.8152   6.8153   6.8159   6.8161   6.8162
     6.8162   6.8162   6.8162   6.8162   6.8162   6.8163   6.8163   6.8163
     6.8163   6.8163   6.8163   6.8163   6.8163   6.8163   6.8164   6.8165
     6.8167   6.8172   6.8173   6.9725   6.9731   6.9732   6.9737   6.9738
     6.9738   6.9738   6.9739   6.9739   6.9739   6.9739   6.9739   6.9739
     6.9739   6.9739   6.9740   6.9740   6.9740   6.9740   6.9740   6.9741
     6.9746   6.9746   6.9751   6.9799   6.9802   6.9802   6.9803   6.9803
     6.9803   6.9803   6.9804   6.9804   6.9804   6.9804   6.9810   7.0868
     7.0871   7.0873   7.0873   7.0873   7.0874   7.0874   7.0874   7.0874
     7.0874   7.0876   7.0879   7.6678   7.6690   7.6691   7.6691   7.6693
     7.6693   7.6693   7.6694   7.6694   7.6694   7.6694   7.6694   7.6694
     7.6694   7.6694   7.6694   7.6694   7.6694   7.6694   7.6695   7.6696
     7.6697   7.6698   7.6710   7.9138   7.9147   7.9151   7.9152   7.9153
     7.9153   7.9153   7.9153   7.9153   7.9153   7.9154   7.9154   7.9154
     7.9154   7.9154   7.9154   7.9154   7.9154   7.9154   7.9154   7.9155
     7.9156   7.9161   7.9169   8.2087   8.2094   8.2095   8.2096   8.2097
     8.2097   8.2097   8.2097   8.2097   8.2098   8.2099   8.2106   8.4637
     8.4647   8.4649   8.4649   8.4650   8.4650   8.4650   8.4650   8.4651
     8.4651   8.4651   8.4651   8.4652   8.4652   8.4654   8.4664   8.7652
     8.7659   8.7661   8.7662   8.7662   8.7662   8.7662   8.7663   8.7663
     8.7664   8.7666   8.7673   9.0786   9.0801   9.0801   9.0801   9.0802
     9.0803   9.0803   9.0803   9.0803   9.0803   9.0803   9.0803   9.0804
     9.0805   9.0805   9.0820   9.1871   9.7090   9.7094   9.7097   9.7888
     9.7892   9.7893   9.7893   9.7893   9.7893   9.7894   9.7898  10.3368
    10.3372  10.3373  10.3373  10.3373  10.3373  10.3374  10.3377  10.3505
    10.3507  10.3510  10.3510  10.3513  10.3515  10.7763  10.7766  10.7771
    10.7771  10.7771  10.7772  10.7772  10.7772  10.7772  10.7773  10.7777
    10.7780  11.0788  11.0791  11.0793  11.0793  11.0795  11.0798  11.1090
    11.1092  11.1094  11.1094  11.1096  11.1098  11.2994  11.3003  11.3012
    11.3015  11.3015  11.3016  11.3016  11.3016  11.3016  11.3016  11.3016
    11.3016  11.3016  11.3016  11.3016  11.3017  11.3017  11.3017  11.3017
    11.3017  11.3017  11.3020  11.3023  11.3025  11.3035  11.3037  11.3040
    11.3041  11.3041  11.3042  11.3042  11.3042  11.3042  11.3042  11.3042
    11.3042  11.3042  11.3042  11.3043  11.3043  11.3043  11.3043  11.3043
    11.3044  11.3044  11.3045  11.3055  11.3064  11.5246  11.5250  11.5251
    11.5252  11.5252  11.5253  11.5253  11.5253  11.5253  11.5254  11.5255
    11.5260  12.2345  12.2348  12.2351  12.3220  12.3221  12.3222  12.3222
    12.3224  12.3224  12.7589  12.7592  12.7595  12.7596  12.7596  12.7597
    12.7597  12.7598  12.7598  12.7599  12.7601  12.7604  12.9775  12.9782
    12.9787  12.9790  12.9791  12.9791  12.9792  12.9792  12.9792  12.9792
    12.9792  12.9792  12.9792  12.9792  12.9793  12.9793  12.9793  12.9793
    12.9793  12.9793  12.9794  12.9797  12.9801  12.9806  13.0131  13.0137
    13.0143  13.0143  13.0144  13.0144  13.0145  13.0145  13.0145  13.0145
    13.0146  13.0146  13.0146  13.0146  13.0146  13.0146  13.0146  13.0147
    13.0147  13.0147  13.0148  13.0149  13.0154  13.0159  13.0397  13.0401
    13.0408  13.0409  13.0409  13.0409  13.0410  13.0410  13.0410  13.0410
    13.0410  13.0410  13.0410  13.0410  13.0411  13.0411  13.0411  13.0411
    13.0411  13.0411  13.0412  13.0412  13.0420  13.0423  13.0590  13.0596
    13.0600  13.0601  13.0601  13.0602  13.0602  13.0602  13.0602  13.0602
    13.0602  13.0603  13.0603  13.0604  13.0608  13.0618  13.4463  13.4466
    13.4475  13.4475  13.4475  13.4476  13.4476  13.4476  13.4476  13.4476
    13.4476  13.4477  13.4477  13.4477  13.4486  13.4489  13.6114  13.6120
    13.6124  13.6125  13.6125  13.6125  13.6125  13.6126  13.6126  13.6126
    13.6131  13.6137  13.8174  13.8176  13.8180  13.8181  13.8181  13.8182
    13.8182  13.8182  13.8182  13.8183  13.8187  13.8189  13.8374  13.8379
    13.8381  13.8385  13.8385  13.8386  13.8387  13.8387  13.8387  13.8387
    13.8387  13.8387  13.8387  13.8387  13.8387  13.8388  13.8388  13.8388
    13.8388  13.8389  13.8390  13.8394  13.8396  13.8402  14.0411  14.0416
    14.0418  14.0422  14.0422  14.0424  14.0424  14.0424  14.0424  14.0424
    14.0424  14.0424  14.0425  14.0425  14.0425  14.0425  14.0425  14.0425
    14.0426  14.0427  14.0427  14.0431  14.0433  14.0438  14.1600  14.1601
    14.1604  14.1604  14.1604  14.1604  14.1608  14.1609  14.4979  14.4983
    14.4986  14.4987  14.4987  14.4987  14.4988  14.4988  14.4988  14.4990
    14.4993  14.4997  14.6669  14.6671  14.6673  14.6675  14.6677  14.6679
    14.6680  14.6683  14.6686  14.6693  14.6698  14.6701  14.6703  14.6707
    14.6721  14.6728  14.6754  14.6776  14.6778  14.6792  14.6796  14.6803
    14.6804  14.6808  14.6813  14.6815

          k = 0.3536-0.3536 0.3536 (489102 PWs)   bands (ev):

   -15.0768 -15.0767 -15.0766 -15.0766 -15.0765 -15.0765 -15.0758 -15.0757
   -15.0757 -15.0757 -15.0757 -15.0756 -15.0741 -15.0740 -15.0740 -15.0739
   -15.0739 -15.0739 -15.0739 -15.0739 -15.0738 -15.0738 -15.0737 -15.0737
   -15.0734 -15.0733 -15.0733 -15.0733 -15.0732 -15.0732 -15.0732 -15.0732
   -15.0732 -15.0732 -15.0732 -15.0731 -15.0703 -15.0703 -15.0702 -15.0702
   -15.0702 -15.0702 -15.0698 -15.0698 -15.0698 -15.0697 -15.0697 -15.0697
   -15.0689 -15.0688 -15.0688 -15.0688 -15.0687 -15.0687 -15.0685 -15.0685
   -15.0684 -15.0684 -15.0684 -15.0684 -15.0684 -15.0684 -15.0683 -15.0683
   -15.0683 -15.0682 -15.0670 -15.0669 -15.0669 -15.0669 -15.0668 -15.0668
   -15.0665 -15.0665 -15.0664 -15.0664 -15.0664 -15.0663 -15.0662 -15.0662
   -15.0662 -15.0661 -15.0661 -15.0661 -15.0661 -15.0661 -15.0661 -15.0661
   -15.0661 -15.0660 -15.0643 -15.0643 -15.0642 -15.0642 -15.0642 -15.0642
   -15.0642 -15.0642 -15.0641 -15.0641 -15.0641 -15.0640 -15.0627 -15.0626
   -15.0626 -15.0626 -15.0625 -15.0625 -15.0622 -15.0621 -15.0620 -15.0620
   -15.0620 -15.0619 -15.0619 -15.0619 -15.0619 -15.0619 -15.0618 -15.0618
   -15.0618 -15.0618 -15.0618 -15.0618 -15.0618 -15.0617 -15.0617 -15.0617
   -15.0617 -15.0617 -15.0616 -15.0616 -15.0607 -15.0607 -15.0607 -15.0607
   -15.0606 -15.0606 -15.0602 -15.0601 -15.0601 -15.0601 -15.0601 -15.0601
   -15.0600 -15.0600 -15.0600 -15.0599 -15.0599 -15.0599 -15.0599 -15.0599
   -15.0599 -15.0599 -15.0599 -15.0598 -15.0598 -15.0598 -15.0598 -15.0597
   -15.0597 -15.0597 -15.0596 -15.0596 -15.0596 -15.0595 -15.0595 -15.0594
   -15.0582 -15.0581 -15.0580 -15.0580 -15.0579 -15.0579 -15.0573 -15.0573
   -15.0572 -15.0572 -15.0572 -15.0571 -15.0568 -15.0568 -15.0568 -15.0568
   -15.0567 -15.0567 -15.0557 -15.0556 -15.0556 -15.0555 -15.0555 -15.0555
   -15.0555 -15.0555 -15.0555 -15.0555 -15.0554 -15.0553 -15.0544 -15.0544
   -15.0544 -15.0544 -15.0544 -15.0543 -15.0541 -15.0540 -15.0525 -15.0525
   -15.0524 -15.0524 -15.0524 -15.0523 -15.0523 -15.0522 -15.0522 -15.0522
   -15.0521 -15.0520 -15.0507 -15.0507 -15.0507 -15.0507 -15.0495 -15.0494
   -15.0494 -15.0494 -15.0493 -15.0493 -15.0481 -15.0481 -15.0480 -15.0480
   -15.0480 -15.0480 -15.0465 -15.0464 -15.0463 -15.0463 -15.0462 -15.0461
   -15.0418 -15.0418 -15.0418 -15.0417 -15.0417 -15.0417 -15.0378 -15.0378
   -15.0378 -15.0377 -15.0321 -15.0320 -15.0320 -15.0320 -15.0319 -15.0319
   -15.0315 -15.0315 -15.0298 -15.0297 -15.0297 -15.0297 -15.0297 -15.0297
   -15.0230 -15.0229 -15.0229 -15.0229 -15.0229 -15.0229 -15.0229 -15.0228
   -15.0179 -15.0179 -15.0179 -15.0179 -15.0178 -15.0178 -15.0173 -15.0152
   -15.0152 -15.0152 -15.0152 -15.0151 -15.0151 -15.0136 -15.0135 -15.0135
   -15.0135 -15.0135 -15.0135 -15.0135 -15.0135 -15.0134 -15.0134 -15.0134
   -15.0133 -15.0085 -15.0085 -15.0084 -15.0084 -15.0084 -15.0084 -15.0011
   -15.0011 -15.0010 -15.0010 -15.0010 -15.0010 -15.0007 -15.0007 -15.0006
   -15.0006 -15.0006 -15.0006 -15.0006 -15.0006 -15.0006 -15.0006 -15.0005
   -15.0005 -14.9972 -14.9971 -14.9971 -14.9971 -14.9971 -14.9970 -14.9968
   -14.9967 -14.9967 -14.9967 -14.9967 -14.9966 -14.9964 -14.9963 -14.9963
   -14.9963 -14.9963 -14.9963 -14.9940 -14.9940 -14.9940 -14.9940 -14.9875
   -14.9874 -14.9874 -14.9874 -14.9874 -14.9874 -14.9871 -14.9871 -14.9870
   -14.9870 -14.9870 -14.9869 -14.9858 -14.9858 -14.9857 -14.9857 -14.9857
   -14.9857 -14.9857 -14.9857 -14.9856 -14.9856 -14.9856 -14.9855 -14.9821
   -14.9821 -14.9821 -14.9821 -14.9821 -14.9820 -14.9820 -14.9820 -14.9820
   -14.9820 -14.9820 -14.9819 -14.9798 -14.9798 -14.9797 -14.9797 -14.9796
   -14.9796 -14.9741 -14.9741 -14.9740 -14.9740 -14.9740 -14.9739 -14.9720
   -14.9720 -14.9720 -14.9719 -14.9711 -14.9710 -14.9710 -14.9710 -14.9709
   -14.9709 -14.9696 -14.9695 -14.9695 -14.9695 -14.9695 -14.9695 -14.9692
   -14.9691 -14.9691 -14.9690 -14.9690 -14.9690 -14.9690 -14.9690 -14.9690
   -14.9690 -14.9690 -14.9689 -14.9688 -14.9688 -14.9688 -14.9688 -14.9687
   -14.9687 -14.9671 -14.9671 -14.9670 -14.9670 -14.9670 -14.9670 -14.9648
   -14.9647 -14.9643 -14.9643 -14.9643 -14.9643 -14.9642 -14.9642 -14.9642
   -14.9642 -14.9641 -14.9641 -14.9641 -14.9641 -14.9631 -14.9631 -14.9631
   -14.9631 -14.9630 -14.9630 -14.9572 -14.9572 -14.9572 -14.9571 -14.9571
   -14.9571 -14.9571 -14.9571 -14.9571 -14.9571 -14.9570 -14.9570 -14.9534
   -14.9533 -14.9533 -14.9533 -14.9533 -14.9533 -14.9494 -14.9494 -14.9493
   -14.9493 -14.9492 -14.9492 -14.9485 -14.9484 -14.9483 -14.9483 -14.9483
   -14.9483 -14.9483 -14.9483 -14.9482 -14.9482 -14.9482 -14.9482 -14.9482
   -14.9482 -14.9482 -14.9482 -14.9482 -14.9482 -14.9481 -14.9481 -14.9481
   -14.9481 -14.9480 -14.9480 -14.9473 -14.9472 -14.9472 -14.9472 -14.9472
   -14.9471 -14.9461 -14.9461 -14.9461 -14.9460 -14.9460 -14.9460 -14.9449
   -14.9449 -14.9448 -14.9448 -14.9448 -14.9448 -14.9447 -14.9447 -14.9447
   -14.9447 -14.9447 -14.9446 -14.9445 -14.9445 -14.9445 -14.9445 -14.9444
   -14.9444 -14.9444 -14.9444 -14.9444 -14.9444 -14.9444 -14.9444 -14.9442
   -14.9442 -14.9442 -14.9442 -14.9441 -14.9441 -14.9430 -14.9429 -14.9429
   -14.9429 -14.9428 -14.9428 -14.9383 -14.9383 -14.9383 -14.9383 -14.9382
   -14.9382 -14.9317 -14.9317 -14.9316 -14.9316 -14.9316 -14.9316 -14.9290
   -14.9290 -14.9290 -14.9290 -14.9290 -14.9290 -14.9263 -14.9263 -14.9263
   -14.9262 -14.9262 -14.9262 -14.9262 -14.9262 -14.9262 -14.9262 -14.9262
   -14.9261 -14.9249 -14.9249 -14.9249 -14.9249 -14.9249 -14.9248 -14.9228
   -14.9227 -14.9227 -14.9227 -14.9227 -14.9226 -14.9224 -14.9224 -14.9223
   -14.9223 -14.9222 -14.9222 -14.9220 -14.9220 -14.9220 -14.9220 -14.9219
   -14.9219 -14.9219 -14.9219 -14.9219 -14.9219 -14.9219 -14.9219 -14.9212
   -14.9211 -14.9211 -14.9211 -14.9211 -14.9211 -14.9211 -14.9211 -14.9210
   -14.9210 -14.9210 -14.9210 -14.9189 -14.9189 -14.9188 -14.9188 -14.9188
   -14.9188 -14.9129 -14.9129 -14.9128 -14.9128 -14.9127 -14.9127 -14.9124
   -14.9124 -14.9124 -14.9124 -14.9124 -14.9124 -14.9124 -14.9124 -14.9123
   -14.9123 -14.9123 -14.9123 -14.9102 -14.9101 -14.9101 -14.9101 -14.9101
   -14.9101 -14.9041 -14.9040 -14.9040 -14.9040 -14.9040 -14.9040 -14.8992
   -14.8991 -14.8991 -14.8991 -14.8991 -14.8991 -14.8991 -14.8991 -14.8991
   -14.8991 -14.8991 -14.8990 -14.8934 -14.8933 -14.8933 -14.8933 -14.8933
   -14.8933 -14.8933 -14.8933 -14.8933 -14.8933 -14.8933 -14.8932 -14.8931
   -14.8931 -14.8931 -14.8930 -14.8930 -14.8930 -14.8924 -14.8924 -14.8924
   -14.8923 -14.8923 -14.8923 -14.8914 -14.8914 -14.8914 -14.8914 -14.8914
   -14.8914 -14.8900 -14.8900 -14.8899 -14.8899 -14.8899 -14.8899 -14.8899
   -14.8899 -14.8899 -14.8899 -14.8899 -14.8898 -14.8892 -14.8891 -14.8891
   -14.8891 -14.8891 -14.8890 -14.8877 -14.8876 -14.8876 -14.8876 -14.8876
   -14.8876 -14.8809 -14.8809 -14.8809 -14.8809 -14.8809 -14.8809 -14.8809
   -14.8809 -14.8808 -14.8808 -14.8808 -14.8808 -14.8769 -14.8769 -14.8769
   -14.8769 -14.8769 -14.8769 -14.8765 -14.8765 -14.8765 -14.8765 -14.8764
   -14.8764 -14.8764 -14.8764 -14.8764 -14.8764 -14.8764 -14.8763 -14.8763
   -14.8763 -14.8763 -14.8763 -14.8763 -14.8763 -14.8755 -14.8755 -14.8754
   -14.8754 -14.8754 -14.8754 -14.8679 -14.8679 -14.8679 -14.8679 -14.8679
   -14.8679 -14.8677 -14.8677 -14.8676 -14.8676 -14.8676 -14.8676 -14.8647
   -14.8646 -14.8646 -14.8646 -14.8646 -14.8645 -14.8637 -14.8637 -14.8637
   -14.8636 -14.8636 -14.8636 -14.8636 -14.8636 -14.8636 -14.8636 -14.8636
   -14.8635 -14.8635 -14.8635 -14.8635 -14.8635 -14.8634 -14.8634 -14.8616
   -14.8615 -14.8615 -14.8615 -14.8615 -14.8615 -14.8602 -14.8601 -14.8601
   -14.8601 -14.8601 -14.8601 -14.8594 -14.8594 -14.8593 -14.8593 -14.8593
   -14.8593 -14.8577 -14.8577 -14.8576 -14.8576 -14.8576 -14.8576 -14.8576
   -14.8576 -14.8576 -14.8576 -14.8575 -14.8575 -14.8563 -14.8563 -14.8563
   -14.8562 -14.8562 -14.8562 -14.8562 -14.8562 -14.8562 -14.8562 -14.8562
   -14.8562 -14.8561 -14.8561 -14.8561 -14.8561 -14.8561 -14.8561 -14.8539
   -14.8539 -14.8538 -14.8538 -14.8538 -14.8538 -14.8536 -14.8535 -14.8535
   -14.8535 -14.8535 -14.8535 -14.8517 -14.8517 -14.8516 -14.8516 -14.8516
   -14.8516 -14.8515 -14.8515 -14.8514 -14.8514 -14.8514 -14.8514 -14.8514
   -14.8514 -14.8500 -14.8500 -14.8499 -14.8499 -14.8499 -14.8499 -14.8473
   -14.8472 -14.8472 -14.8472 -14.8472 -14.8471 -14.8467 -14.8467 -14.8467
   -14.8467 -14.8466 -14.8465 -14.8465 -14.8465 -14.8465 -14.8465 -14.8452
   -14.8452 -14.8452 -14.8451 -14.8451 -14.8451 -14.8451 -14.8451 -14.8451
   -14.8451 -14.8450 -14.8450 -14.8444 -14.8444 -14.8443 -14.8443 -14.8443
   -14.8443 -14.8437 -14.8437 -14.8437 -14.8437 -14.8437 -14.8437 -14.8427
   -14.8427 -14.8426 -14.8426 -14.8425 -14.8425 -14.8412 -14.8412 -14.8412
   -14.8412 -14.8412 -14.8412 -14.8412 -14.8412 -14.8412 -14.8411 -14.8411
   -14.8411 -14.8393 -14.8392 -14.8392 -14.8392 -14.8392 -14.8392 -14.8381
   -14.8341 -14.8341 -14.8340 -14.8340 -14.8340 -14.8340 -14.8321 -14.8321
   -14.8321 -14.8320 -14.8320 -14.8320 -14.8320 -14.8320 -14.8320 -14.8320
   -14.8320 -14.8320 -14.8317 -14.8317 -14.8285 -14.8285 -14.8285 -14.8285
   -14.8274 -14.8273 -14.8273 -14.8273 -14.8273 -14.8272 -14.8220 -14.8220
   -14.8219 -14.8219 -14.8219 -14.8219 -14.8219 -14.8219 -14.8218 -14.8217
   -14.8217 -14.8217 -14.8217 -14.8217 -14.8161 -14.8161 -14.8160 -14.8160
   -14.8160 -14.8160 -14.8114 -14.8114 -14.8114 -14.8114 -14.8114 -14.8114
   -14.8044 -14.8044 -14.8043 -14.8043 -14.8043 -14.8043 -14.8037 -14.8037
   -14.8037 -14.8037 -14.7977 -14.7976 -14.7976 -14.7976 -14.7976 -14.7975
   -14.7952 -14.7951 -14.7951 -14.7951 -14.7951 -14.7950 -14.7933 -14.7932
   -14.7932 -14.7931 -14.7931 -14.7930 -14.7901 -14.7901 -14.7901 -14.7901
   -14.7893 -14.7893 -14.7893 -14.7893 -14.7892 -14.7892 -14.7871 -14.7871
   -14.7871 -14.7871 -14.7871 -14.7871 -14.7871 -14.7870 -14.7870 -14.7870
   -14.7870 -14.7870 -14.7870 -14.7870 -14.7870 -14.7870 -14.7870 -14.7869
   -14.7867 -14.7867 -14.7867 -14.7867 -14.7867 -14.7867 -14.7864 -14.7864
   -14.7830 -14.7830 -14.7830 -14.7830 -14.7829 -14.7829 -14.7826 -14.7826
   -14.7826 -14.7826 -14.7826 -14.7826 -14.7816 -14.7815 -14.7815 -14.7815
   -14.7814 -14.7813 -14.7812 -14.7811 -14.7811 -14.7811 -14.7811 -14.7811
   -14.7805 -14.7804 -14.7804 -14.7804 -14.7803 -14.7803 -14.7802 -14.7801
   -14.7801 -14.7801 -14.7801 -14.7801 -14.7801 -14.7801 -14.7801 -14.7801
   -14.7801 -14.7801 -14.7796 -14.7796 -14.7795 -14.7795 -14.7795 -14.7795
   -14.7782 -14.7781 -14.7781 -14.7781 -14.7781 -14.7780 -14.7778 -14.7778
   -14.7778 -14.7778 -14.7778 -14.7778 -14.7777 -14.7777 -14.7777 -14.7777
   -14.7777 -14.7777 -14.7776 -14.7776 -14.7776 -14.7776 -14.7775 -14.7775
   -14.7755 -14.7755 -14.7754 -14.7754 -14.7753 -14.7753 -14.7751 -14.7751
   -14.7750 -14.7750 -14.7750 -14.7750 -14.7746 -14.7746 -14.7746 -14.7746
   -14.7746 -14.7745 -14.7742 -14.7741 -14.7741 -14.7741 -14.7741 -14.7741
   -14.7740 -14.7740 -14.7740 -14.7740 -14.7740 -14.7739 -14.7718 -14.7717
   -14.7717 -14.7717 -14.7717 -14.7717 -14.7716 -14.7716 -14.7716 -14.7716
   -14.7716 -14.7716 -14.7715 -14.7714 -14.7714 -14.7714 -14.7713 -14.7713
   -14.7713 -14.7713 -14.7713 -14.7713 -14.7712 -14.7712 -14.7712 -14.7712
   -14.7712 -14.7712 -14.7712 -14.7712 -14.7712 -14.7712 -14.7712 -14.7711
   -14.7711 -14.7711 -14.7695 -14.7695 -14.7694 -14.7694 -14.7694 -14.7694
   -14.7684 -14.7683 -14.7683 -14.7683 -14.7683 -14.7682 -14.7657 -14.7657
   -14.7657 -14.7657 -14.7656 -14.7656 -14.7656 -14.7656 -14.7656 -14.7656
   -14.7655 -14.7655 -14.7651 -14.7650 -14.7650 -14.7650 -14.7650 -14.7650
   -14.7650 -14.7650 -14.7650 -14.7650 -14.7649 -14.7649 -14.7628 -14.7627
   -14.7627 -14.7627 -14.7627 -14.7627 -14.7623 -14.7623 -14.7622 -14.7622
   -14.7621 -14.7621  -2.5334  -2.5334  -2.2289  -2.2285  -2.2284  -2.2284
    -2.2284  -2.2280  -1.9357  -1.9353  -1.9353  -1.9353  -1.9353  -1.9349
    -1.6620  -1.6620  -1.6268  -1.6264  -1.6263  -1.6263  -1.6263  -1.6259
    -1.3633  -1.3621  -1.3621  -1.3621  -1.3621  -1.3620  -1.3620  -1.3620
    -1.3620  -1.3620  -1.3619  -1.3608  -1.1421  -1.1415  -1.1415  -1.1415
    -1.1415  -1.1409  -0.8600  -0.8596  -0.8596  -0.8596  -0.8595  -0.8592
    -0.7644  -0.7638  -0.7638  -0.7638  -0.7638  -0.7633  -0.7455  -0.7449
    -0.7449  -0.7449  -0.7448  -0.7442  -0.6977  -0.5411  -0.5400  -0.5400
    -0.5400  -0.5399  -0.5399  -0.5399  -0.5399  -0.5399  -0.5399  -0.5398
    -0.5388  -0.4482  -0.4477  -0.4477  -0.4477  -0.4476  -0.4472  -0.3845
    -0.3841  -0.3840  -0.3840  -0.3840  -0.3835  -0.1849  -0.1838  -0.1838
    -0.1838  -0.1838  -0.1838  -0.1838  -0.1837  -0.1837  -0.1837  -0.1837
    -0.1826   0.2036   0.2041   0.2041   0.2041   0.2042   0.2047   0.3827
     0.3833   0.3834   0.3834   0.3834   0.3840   0.4558   0.4569   0.4569
     0.4569   0.4569   0.4569   0.4569   0.4570   0.4570   0.4570   0.4570
     0.4580   0.5063   0.5069   0.5070   0.5070   0.5070   0.5077   1.6854
     1.6857   1.6857   1.6858   1.6858   1.6861   1.7026   1.7040   1.7040
     1.7040   1.7041   1.7041   1.7041   1.7041   1.7041   1.7041   1.7041
     1.7055   1.7240   1.7244   1.7245   1.7245   1.7245   1.7250   1.9362
     1.9368   1.9368   1.9368   1.9368   1.9374   2.3099   2.3107   2.3107
     2.3108   2.3108   2.3115   2.3485   2.3588   2.3602   2.3603   2.3603
     2.3603   2.3603   2.3604   2.3604   2.3604   2.3605   2.3605   2.3620
     2.5081   2.5082   2.5083   2.5083   2.5084   2.5084   2.6190   2.6197
     2.6197   2.6197   2.6198   2.6204   2.8486   2.8497   2.8497   2.8497
     2.8498   2.8498   2.8498   2.8498   2.8498   2.8499   2.8499   2.8510
     3.1559   3.1560   3.1561   3.1561   3.1562   3.1563   3.1892   3.1898
     3.1898   3.1898   3.1899   3.1905   3.2886   3.2892   3.2893   3.2893
     3.2894   3.2900   4.0129   4.0140   4.0141   4.0141   4.0142   4.0142
     4.0142   4.0142   4.0142   4.0142   4.0144   4.0155   4.2421   4.2421
     4.7213   4.7216   4.7216   4.7216   4.7217   4.7220   5.1926   5.1930
     5.1931   5.1931   5.1932   5.1936   5.6679   5.6682   5.6683   5.6683
     5.6685   5.6687   5.7812   5.7815   5.7816   5.7816   5.7817   5.7820
     5.8394   5.8395   5.8397   5.8398   5.8398   5.8398   5.8399   5.8399
     5.8399   5.8400   5.8402   5.8403   5.9723   5.9726   5.9727   5.9728
     5.9728   5.9728   5.9728   5.9728   5.9728   5.9729   5.9730   5.9733
     6.2600   6.2605   6.2606   6.2606   6.2608   6.2612   6.2758   6.2761
     6.2762   6.2762   6.2763   6.2766   6.3351   6.3354   6.3355   6.3357
     6.3357   6.3357   6.3357   6.3357   6.3358   6.3360   6.3360   6.3363
     6.4711   6.4714   6.4715   6.4715   6.4717   6.4720   6.4939   6.4940
     6.4941   6.4941   6.4943   6.4944   6.5758   6.5759   6.5761   6.5762
     6.5763   6.5765   6.5959   6.5960   6.5962   6.5962   6.5965   6.5965
     6.7779   6.7780   6.7784   6.7784   6.7784   6.7784   6.7784   6.7784
     6.7785   6.7785   6.7788   6.7789   6.8806   6.8807   6.8808   6.8808
     6.8809   6.8811   6.9263   6.9266   6.9267   6.9267   6.9268   6.9271
     6.9912   6.9913   6.9918   6.9918   6.9918   6.9918   6.9919   6.9919
     6.9919   6.9919   6.9924   6.9925   7.2413   7.2416   7.2416   7.2416
     7.2417   7.2420   7.3078   7.3081   7.3084   7.3084   7.3085   7.3085
     7.3085   7.3085   7.3086   7.3086   7.3089   7.3092   7.3731   7.3733
     7.3734   7.3734   7.3736   7.3737   7.4394   7.4397   7.4397   7.4397
     7.4398   7.4401   7.4709   7.4710   7.4714   7.4714   7.4715   7.4715
     7.4715   7.4715   7.4716   7.4716   7.4720   7.4721   7.6368   7.6371
     7.6372   7.6372   7.6373   7.6377   7.6929   7.6933   7.6935   7.6935
     7.6937   7.6941   7.6953   7.6954   7.7409   7.7410   7.7411   7.7411
     7.7412   7.7413   7.8269   7.8270   7.8272   7.8272   7.8273   7.8274
     7.8482   7.8486   7.8488   7.8488   7.8489   7.8493   7.8571   7.8573
     7.8574   7.8574   7.8575   7.8578   8.1548   8.1551   8.1552   8.1552
     8.1553   8.1556   8.2620   8.2622   8.2626   8.2626   8.2626   8.2626
     8.2626   8.2627   8.2627   8.2627   8.2631   8.2632   8.3005   8.3010
     8.3011   8.3011   8.3011   8.3017   8.3500   8.3503   8.3504   8.3504
     8.3505   8.3508   8.3820   8.3825   8.6800   8.6805   8.6806   8.6806
     8.6808   8.6812   8.6879   8.6880   8.6881   8.6881   8.6883   8.6883
     8.7066   8.7070   8.7071   8.7076   9.1170   9.1177   9.1178   9.1178
     9.1179   9.1185   9.4950   9.4955   9.4956   9.4961   9.7091  10.0190
    10.0190  10.4431  10.4431  10.6062  10.6069  10.6070  10.6070  10.6071
    10.6077  10.6653  10.6656  10.6656  10.6656  10.6657  10.6660  10.7574
    10.7576  10.7578  10.7578  10.7580  10.7582  10.8365  10.8368  10.8369
    10.8369  10.8370  10.8373  11.0132  11.0135  11.0135  11.0135  11.0136
    11.0139  11.0777  11.0783  11.0783  11.0783  11.0784  11.0789  11.1795
    11.1800  11.1801  11.1801  11.1802  11.1808  11.2504  11.2508  11.2509
    11.2509  11.2511  11.2515  11.3065  11.3068  11.3069  11.3069  11.3071
    11.3073  11.4285  11.4287  11.4288  11.4288  11.4290  11.4292  11.4593
    11.4596  11.4597  11.4597  11.4598  11.4601  11.4937  11.4945  11.4946
    11.4947  11.4947  11.4947  11.4947  11.4948  11.4948  11.4949  11.4949
    11.4956  11.5021  11.5023  11.5024  11.5024  11.5025  11.5028  11.7245
    11.7250  11.7251  11.7251  11.7251  11.7252  11.7252  11.7252  11.7253
    11.7253  11.7253  11.7258  11.7511  11.7516  11.7518  11.7518  11.7519
    11.7519  11.7519  11.7519  11.7520  11.7520  11.7522  11.7527  11.8633
    11.8634  11.8637  11.8637  11.8639  11.8640  11.9904  11.9911  11.9912
    11.9913  11.9914  11.9915  11.9920  11.9921  11.9921  11.9922  11.9922
    11.9922  11.9923  11.9923  11.9923  11.9924  11.9925  11.9933  12.3727
    12.3729  12.3730  12.3730  12.3730  12.3733  12.5218  12.5223  12.5224
    12.5228  12.7275  12.7276  12.7307  12.7313  12.7314  12.7315  12.7316
    12.7316  12.7316  12.7316  12.7316  12.7317  12.7319  12.7324  12.8605
    12.8613  12.8615  12.8616  12.8616  12.8616  12.8616  12.8616  12.8617
    12.8618  12.8619  12.8627  13.0354  13.0362  13.0363  13.0364  13.0364
    13.0364  13.0365  13.0365  13.0365  13.0366  13.0367  13.0374  13.0455
    13.0458  13.0459  13.0460  13.0460  13.0464  13.0565  13.0569  13.0570
    13.0570  13.0570  13.0575  13.0736  13.0739  13.0740  13.0740  13.0741
    13.0744  13.1121  13.1123  13.1124  13.1125  13.1125  13.1128  13.3172
    13.3172  13.3174  13.3174  13.3176  13.3176  13.3923  13.3930  13.3931
    13.3937  13.4064  13.4067  13.4067  13.4067  13.4068  13.4071  13.4320
    13.4327  13.5934  13.5938  13.5940  13.5941  13.5943  13.5947  13.6638
    13.6640  13.6643  13.6643  13.6645  13.6647  13.6736  13.6739  13.6741
    13.6741  13.6744  13.6746  13.6819  13.6822  13.6824  13.6825  13.6825
    13.6826  13.6826  13.6826  13.6826  13.6827  13.6829  13.6834  13.6925
    13.6925  13.6925  13.6925  13.6926  13.6928  13.9822  13.9823  13.9826
    13.9826  13.9828  13.9829  14.0198  14.0200  14.0203  14.0203  14.0206
    14.0209  14.0606  14.0607  14.0607  14.0607  14.0608  14.0608  14.2414
    14.2422  14.2423  14.2423  14.2424  14.2432  14.4104  14.4107  14.4111
    14.4113  14.4113  14.4113  14.4113  14.4113  14.4113  14.4115  14.4119
    14.4122  14.4437  14.4439  14.4442  14.4442  14.4443  14.4443  14.4443
    14.4443  14.4444  14.4444  14.4447  14.4449  14.5840  14.5843  14.5845
    14.5845  14.5846  14.5849  14.6821  14.6823  14.6823  14.6824  14.6825
    14.6828  14.7444  14.7446  14.7448  14.7449  14.7451  14.7453  14.7994
    14.7995  14.7996  14.7998  14.7999  14.8000  14.8785  14.8788  14.8790
    14.8791  14.8793  14.8800  14.8931  14.8933  14.8936  14.8937  14.8938
    14.8938  14.8941  14.8942  14.8944

          k = 0.0000-0.7071 0.0000 (489202 PWs)   bands (ev):

   -15.0771 -15.0770 -15.0770 -15.0770 -15.0769 -15.0769 -15.0769 -15.0769
   -15.0751 -15.0750 -15.0750 -15.0750 -15.0745 -15.0744 -15.0743 -15.0743
   -15.0742 -15.0742 -15.0742 -15.0742 -15.0742 -15.0742 -15.0742 -15.0742
   -15.0741 -15.0741 -15.0741 -15.0740 -15.0729 -15.0729 -15.0729 -15.0729
   -15.0729 -15.0729 -15.0728 -15.0728 -15.0716 -15.0715 -15.0715 -15.0715
   -15.0715 -15.0715 -15.0715 -15.0714 -15.0676 -15.0675 -15.0675 -15.0674
   -15.0674 -15.0674 -15.0674 -15.0674 -15.0671 -15.0670 -15.0670 -15.0670
   -15.0669 -15.0669 -15.0669 -15.0669 -15.0666 -15.0665 -15.0665 -15.0665
   -15.0664 -15.0664 -15.0664 -15.0664 -15.0664 -15.0664 -15.0664 -15.0664
   -15.0663 -15.0663 -15.0663 -15.0663 -15.0663 -15.0662 -15.0662 -15.0662
   -15.0662 -15.0662 -15.0662 -15.0661 -15.0648 -15.0647 -15.0647 -15.0647
   -15.0647 -15.0647 -15.0647 -15.0646 -15.0645 -15.0645 -15.0645 -15.0645
   -15.0645 -15.0645 -15.0644 -15.0644 -15.0638 -15.0638 -15.0638 -15.0637
   -15.0637 -15.0637 -15.0637 -15.0637 -15.0637 -15.0637 -15.0637 -15.0637
   -15.0636 -15.0636 -15.0636 -15.0636 -15.0629 -15.0629 -15.0628 -15.0628
   -15.0626 -15.0626 -15.0625 -15.0625 -15.0625 -15.0625 -15.0625 -15.0625
   -15.0624 -15.0624 -15.0617 -15.0616 -15.0616 -15.0616 -15.0616 -15.0616
   -15.0615 -15.0615 -15.0606 -15.0606 -15.0605 -15.0605 -15.0605 -15.0605
   -15.0604 -15.0603 -15.0591 -15.0589 -15.0589 -15.0589 -15.0589 -15.0589
   -15.0588 -15.0588 -15.0588 -15.0588 -15.0588 -15.0588 -15.0587 -15.0587
   -15.0587 -15.0587 -15.0587 -15.0587 -15.0587 -15.0586 -15.0586 -15.0586
   -15.0586 -15.0585 -15.0579 -15.0579 -15.0579 -15.0579 -15.0579 -15.0579
   -15.0578 -15.0577 -15.0561 -15.0561 -15.0561 -15.0561 -15.0560 -15.0560
   -15.0560 -15.0560 -15.0555 -15.0555 -15.0554 -15.0554 -15.0554 -15.0554
   -15.0554 -15.0554 -15.0554 -15.0553 -15.0553 -15.0553 -15.0553 -15.0552
   -15.0552 -15.0552 -15.0546 -15.0546 -15.0546 -15.0546 -15.0546 -15.0545
   -15.0545 -15.0545 -15.0532 -15.0532 -15.0532 -15.0532 -15.0525 -15.0525
   -15.0525 -15.0525 -15.0524 -15.0524 -15.0524 -15.0523 -15.0485 -15.0485
   -15.0485 -15.0485 -15.0484 -15.0484 -15.0484 -15.0484 -15.0479 -15.0479
   -15.0479 -15.0479 -15.0479 -15.0479 -15.0478 -15.0478 -15.0453 -15.0453
   -15.0453 -15.0453 -15.0399 -15.0398 -15.0398 -15.0398 -15.0375 -15.0375
   -15.0362 -15.0362 -15.0362 -15.0362 -15.0320 -15.0320 -15.0303 -15.0303
   -15.0303 -15.0303 -15.0262 -15.0261 -15.0261 -15.0261 -15.0261 -15.0261
   -15.0261 -15.0260 -15.0240 -15.0240 -15.0239 -15.0239 -15.0239 -15.0239
   -15.0239 -15.0238 -15.0185 -15.0185 -15.0185 -15.0185 -15.0184 -15.0184
   -15.0184 -15.0184 -15.0142 -15.0141 -15.0141 -15.0141 -15.0141 -15.0141
   -15.0141 -15.0140 -15.0091 -15.0091 -15.0090 -15.0090 -15.0090 -15.0090
   -15.0089 -15.0089 -15.0020 -15.0020 -15.0019 -15.0019 -15.0019 -15.0019
   -15.0018 -15.0018 -15.0018 -15.0018 -15.0018 -15.0018 -15.0018 -15.0017
   -15.0017 -15.0017 -15.0017 -15.0017 -15.0017 -15.0017 -15.0017 -15.0017
   -15.0016 -15.0016 -14.9989 -14.9989 -14.9988 -14.9988 -14.9988 -14.9988
   -14.9987 -14.9987 -14.9964 -14.9964 -14.9964 -14.9964 -14.9964 -14.9964
   -14.9963 -14.9963 -14.9957 -14.9957 -14.9892 -14.9891 -14.9891 -14.9891
   -14.9874 -14.9874 -14.9874 -14.9874 -14.9873 -14.9873 -14.9873 -14.9873
   -14.9873 -14.9873 -14.9873 -14.9873 -14.9872 -14.9872 -14.9872 -14.9872
   -14.9871 -14.9871 -14.9868 -14.9868 -14.9868 -14.9868 -14.9867 -14.9867
   -14.9824 -14.9823 -14.9823 -14.9823 -14.9789 -14.9789 -14.9788 -14.9788
   -14.9788 -14.9788 -14.9788 -14.9787 -14.9781 -14.9781 -14.9781 -14.9781
   -14.9780 -14.9780 -14.9780 -14.9780 -14.9763 -14.9762 -14.9762 -14.9762
   -14.9761 -14.9761 -14.9761 -14.9761 -14.9759 -14.9759 -14.9759 -14.9759
   -14.9759 -14.9759 -14.9758 -14.9758 -14.9714 -14.9713 -14.9712 -14.9712
   -14.9712 -14.9712 -14.9712 -14.9711 -14.9626 -14.9625 -14.9625 -14.9625
   -14.9625 -14.9625 -14.9625 -14.9624 -14.9607 -14.9606 -14.9605 -14.9605
   -14.9605 -14.9605 -14.9604 -14.9604 -14.9602 -14.9601 -14.9601 -14.9600
   -14.9600 -14.9600 -14.9600 -14.9600 -14.9600 -14.9600 -14.9599 -14.9599
   -14.9599 -14.9598 -14.9598 -14.9598 -14.9598 -14.9598 -14.9597 -14.9597
   -14.9597 -14.9596 -14.9596 -14.9596 -14.9596 -14.9596 -14.9596 -14.9596
   -14.9596 -14.9596 -14.9596 -14.9596 -14.9595 -14.9595 -14.9595 -14.9595
   -14.9594 -14.9594 -14.9594 -14.9594 -14.9593 -14.9592 -14.9590 -14.9590
   -14.9590 -14.9590 -14.9589 -14.9589 -14.9589 -14.9588 -14.9588 -14.9587
   -14.9587 -14.9587 -14.9587 -14.9587 -14.9586 -14.9585 -14.9557 -14.9557
   -14.9557 -14.9557 -14.9557 -14.9557 -14.9557 -14.9556 -14.9442 -14.9441
   -14.9441 -14.9440 -14.9440 -14.9440 -14.9440 -14.9440 -14.9440 -14.9440
   -14.9440 -14.9440 -14.9440 -14.9440 -14.9439 -14.9439 -14.9434 -14.9434
   -14.9434 -14.9433 -14.9432 -14.9432 -14.9432 -14.9432 -14.9432 -14.9432
   -14.9432 -14.9432 -14.9393 -14.9392 -14.9392 -14.9392 -14.9391 -14.9391
   -14.9391 -14.9391 -14.9391 -14.9391 -14.9391 -14.9391 -14.9390 -14.9390
   -14.9390 -14.9389 -14.9347 -14.9346 -14.9345 -14.9345 -14.9345 -14.9345
   -14.9345 -14.9344 -14.9339 -14.9338 -14.9338 -14.9338 -14.9338 -14.9338
   -14.9337 -14.9337 -14.9336 -14.9336 -14.9336 -14.9336 -14.9335 -14.9335
   -14.9335 -14.9334 -14.9320 -14.9320 -14.9320 -14.9320 -14.9320 -14.9320
   -14.9320 -14.9319 -14.9292 -14.9292 -14.9292 -14.9292 -14.9292 -14.9292
   -14.9291 -14.9291 -14.9279 -14.9279 -14.9279 -14.9278 -14.9248 -14.9248
   -14.9242 -14.9242 -14.9242 -14.9241 -14.9241 -14.9241 -14.9241 -14.9241
   -14.9241 -14.9241 -14.9241 -14.9241 -14.9241 -14.9241 -14.9241 -14.9240
   -14.9238 -14.9238 -14.9237 -14.9237 -14.9237 -14.9237 -14.9237 -14.9237
   -14.9226 -14.9226 -14.9225 -14.9225 -14.9225 -14.9225 -14.9224 -14.9224
   -14.9140 -14.9140 -14.9083 -14.9083 -14.9082 -14.9082 -14.9082 -14.9082
   -14.9082 -14.9082 -14.9078 -14.9078 -14.9078 -14.9077 -14.9077 -14.9076
   -14.9076 -14.9076 -14.9071 -14.9071 -14.9071 -14.9070 -14.9070 -14.9070
   -14.9070 -14.9070 -14.9068 -14.9067 -14.9067 -14.9067 -14.9067 -14.9067
   -14.9067 -14.9067 -14.9067 -14.9066 -14.9066 -14.9066 -14.9066 -14.9066
   -14.9066 -14.9065 -14.9055 -14.9055 -14.9055 -14.9055 -14.9055 -14.9055
   -14.9054 -14.9054 -14.9045 -14.9045 -14.9044 -14.9044 -14.9044 -14.9044
   -14.9044 -14.9043 -14.9036 -14.9036 -14.8959 -14.8959 -14.8959 -14.8959
   -14.8959 -14.8959 -14.8959 -14.8959 -14.8954 -14.8954 -14.8954 -14.8953
   -14.8953 -14.8953 -14.8953 -14.8953 -14.8932 -14.8932 -14.8932 -14.8932
   -14.8931 -14.8931 -14.8931 -14.8931 -14.8881 -14.8881 -14.8881 -14.8881
   -14.8877 -14.8876 -14.8876 -14.8876 -14.8818 -14.8817 -14.8817 -14.8817
   -14.8817 -14.8817 -14.8817 -14.8817 -14.8817 -14.8817 -14.8817 -14.8817
   -14.8816 -14.8816 -14.8816 -14.8816 -14.8801 -14.8801 -14.8801 -14.8801
   -14.8801 -14.8801 -14.8801 -14.8801 -14.8771 -14.8770 -14.8770 -14.8770
   -14.8770 -14.8770 -14.8770 -14.8769 -14.8769 -14.8769 -14.8769 -14.8769
   -14.8769 -14.8769 -14.8768 -14.8768 -14.8757 -14.8756 -14.8755 -14.8755
   -14.8755 -14.8755 -14.8755 -14.8755 -14.8754 -14.8754 -14.8754 -14.8754
   -14.8754 -14.8753 -14.8753 -14.8753 -14.8712 -14.8712 -14.8712 -14.8712
   -14.8712 -14.8712 -14.8711 -14.8711 -14.8658 -14.8658 -14.8658 -14.8658
   -14.8658 -14.8658 -14.8657 -14.8657 -14.8642 -14.8642 -14.8642 -14.8642
   -14.8642 -14.8642 -14.8642 -14.8642 -14.8622 -14.8621 -14.8621 -14.8621
   -14.8621 -14.8620 -14.8620 -14.8620 -14.8610 -14.8610 -14.8609 -14.8609
   -14.8609 -14.8609 -14.8609 -14.8609 -14.8605 -14.8605 -14.8604 -14.8604
   -14.8604 -14.8604 -14.8604 -14.8603 -14.8557 -14.8557 -14.8557 -14.8557
   -14.8557 -14.8556 -14.8556 -14.8556 -14.8552 -14.8551 -14.8551 -14.8551
   -14.8551 -14.8551 -14.8550 -14.8550 -14.8550 -14.8550 -14.8550 -14.8550
   -14.8550 -14.8550 -14.8550 -14.8550 -14.8550 -14.8550 -14.8549 -14.8549
   -14.8549 -14.8549 -14.8548 -14.8548 -14.8548 -14.8547 -14.8547 -14.8547
   -14.8546 -14.8546 -14.8540 -14.8540 -14.8540 -14.8540 -14.8540 -14.8540
[...]
     atom   20 type  1   force =    -0.00001096   -0.00000414    0.00001281
     atom   21 type  1   force =     0.00011218    0.00005218    0.00006558
     atom   22 type  1   force =    -0.00006672   -0.00005291   -0.00010917
     atom   23 type  1   force =    -0.00001101    0.00000382    0.00001754
     atom   24 type  1   force =    -0.00000819   -0.00000122    0.00000907
     atom   25 type  1   force =    -0.00001644   -0.00000502    0.00001337
     atom   26 type  1   force =    -0.00002850    0.00001378   -0.00007063
     atom   27 type  1   force =    -0.00001347   -0.00000721    0.00001465
     atom   28 type  1   force =    -0.00000947   -0.00000022    0.00000876
     atom   29 type  1   force =    -0.00001576    0.00000422    0.00001239
     atom   30 type  1   force =     0.00007147   -0.00001407    0.00002437
     atom   31 type  1   force =    -0.00000262    0.00000761    0.00000262
     atom   32 type  1   force =    -0.00000959   -0.00000073    0.00000959
     atom   33 type  1   force =    -0.00000832    0.00000033    0.00000832
     atom   34 type  1   force =    -0.00000350   -0.00001109    0.00000350
     atom   35 type  1   force =    -0.00001255    0.00000080    0.00001255
     atom   36 type  1   force =    -0.00000507    0.00000765    0.00000581
     atom   37 type  1   force =    -0.00000781    0.00000200    0.00000926
     atom   38 type  1   force =    -0.00000103   -0.00000454    0.00000542
     atom   39 type  1   force =    -0.00000892    0.00000089    0.00001151
     atom   40 type  1   force =    -0.00000847   -0.00000051    0.00001021
     atom   41 type  1   force =    -0.00001021    0.00001177    0.00000311
     atom   42 type  1   force =    -0.00000292   -0.00001230    0.00000805
     atom   43 type  1   force =    -0.00000726    0.00000068    0.00001077
     atom   44 type  1   force =    -0.00000665   -0.00000004    0.00000845
     atom   45 type  1   force =    -0.00001071    0.00000042    0.00000948
     atom   46 type  1   force =    -0.00001343   -0.00000090    0.00001300
     atom   47 type  1   force =    -0.00000997   -0.00000020    0.00001350
     atom   48 type  1   force =    -0.00000648   -0.00000060    0.00000833
     atom   49 type  1   force =    -0.00000985    0.00000082    0.00000849
     atom   50 type  1   force =    -0.00001146   -0.00000028    0.00000897
     atom   51 type  1   force =    -0.00000418    0.00000102   -0.00002815
     atom   52 type  1   force =    -0.00001249   -0.00000114    0.00001203
     atom   53 type  1   force =    -0.00001210    0.00000196    0.00000974
     atom   54 type  1   force =     0.00002459   -0.00000112    0.00000271
     atom   55 type  1   force =    -0.00002409    0.00000056    0.00001958
     atom   56 type  1   force =    -0.00000581    0.00000765    0.00000507
     atom   57 type  1   force =    -0.00000926    0.00000200    0.00000781
     atom   58 type  1   force =    -0.00000542   -0.00000454    0.00000103
     atom   59 type  1   force =    -0.00001151    0.00000089    0.00000892
     atom   60 type  1   force =    -0.00001021   -0.00000051    0.00000847
     atom   61 type  1   force =    -0.00000617    0.00000792    0.00000617
     atom   62 type  1   force =    -0.00000387   -0.00000592    0.00000387
     atom   63 type  1   force =    -0.00000854    0.00000195    0.00000854
     atom   64 type  1   force =    -0.00000772   -0.00000078    0.00000772
     atom   65 type  1   force =    -0.00001055    0.00000080    0.00001055
     atom   66 type  1   force =    -0.00000281    0.00000009    0.00000046
     atom   67 type  1   force =    -0.00000803    0.00000139    0.00000869
     atom   68 type  1   force =    -0.00000667    0.00000080    0.00000852
     atom   69 type  1   force =    -0.00000832    0.00000177    0.00001011
     atom   70 type  1   force =    -0.00001028   -0.00000059    0.00000869
     atom   71 type  1   force =    -0.00000653    0.00001534    0.00000661
     atom   72 type  1   force =    -0.00000793   -0.00000020    0.00000892
     atom   73 type  1   force =    -0.00000909    0.00000086    0.00000791
     atom   74 type  1   force =    -0.00000914   -0.00000075    0.00000736
     atom   75 type  1   force =    -0.00000923   -0.00001296    0.00000421
     atom   76 type  1   force =    -0.00000919    0.00000777   -0.00003312
     atom   77 type  1   force =    -0.00002013   -0.00000055    0.00002164
     atom   78 type  1   force =     0.00003169   -0.00000712    0.00000911
     atom   79 type  1   force =    -0.00001438    0.00000177    0.00001020
     atom   80 type  1   force =    -0.00001281   -0.00000414    0.00001096
     atom   81 type  1   force =    -0.00000311    0.00001177    0.00001021
     atom   82 type  1   force =    -0.00000805   -0.00001230    0.00000292
     atom   83 type  1   force =    -0.00001077    0.00000068    0.00000726
     atom   84 type  1   force =    -0.00000845   -0.00000004    0.00000665
     atom   85 type  1   force =    -0.00000948    0.00000042    0.00001071
     atom   86 type  1   force =    -0.00000046    0.00000009    0.00000281
     atom   87 type  1   force =    -0.00000869    0.00000139    0.00000803
     atom   88 type  1   force =    -0.00000852    0.00000080    0.00000667
     atom   89 type  1   force =    -0.00001011    0.00000177    0.00000832
     atom   90 type  1   force =    -0.00000869   -0.00000059    0.00001028
     atom   91 type  1   force =    -0.00000477    0.00000917    0.00000477
     atom   92 type  1   force =    -0.00000720    0.00000038    0.00000720
     atom   93 type  1   force =    -0.00000909    0.00000161    0.00000909
     atom   94 type  1   force =    -0.00000875    0.00000054    0.00000875
     atom   95 type  1   force =    -0.00000642   -0.00000630    0.00000642
     atom   96 type  1   force =    -0.00000263    0.00000603    0.00000244
     atom   97 type  1   force =    -0.00000966   -0.00000050    0.00000991
     atom   98 type  1   force =    -0.00001018    0.00000050    0.00000867
     atom   99 type  1   force =    -0.00000766   -0.00000445    0.00000279
     atom  100 type  1   force =    -0.00001116   -0.00000014    0.00000831
     atom  101 type  1   force =    -0.00006558    0.00005218   -0.00011218
     atom  102 type  1   force =     0.00010917   -0.00005291    0.00006672
     atom  103 type  1   force =    -0.00001754    0.00000382    0.00001101
     atom  104 type  1   force =    -0.00000907   -0.00000122    0.00000819
     atom  105 type  1   force =    -0.00001337   -0.00000502    0.00001644
     atom  106 type  1   force =    -0.00001300   -0.00000090    0.00001343
     atom  107 type  1   force =    -0.00001350   -0.00000020    0.00000997
     atom  108 type  1   force =    -0.00000833   -0.00000060    0.00000648
     atom  109 type  1   force =    -0.00000849    0.00000082    0.00000985
     atom  110 type  1   force =    -0.00000897   -0.00000028    0.00001146
     atom  111 type  1   force =    -0.00000661    0.00001534    0.00000653
     atom  112 type  1   force =    -0.00000892   -0.00000020    0.00000793
     atom  113 type  1   force =    -0.00000791    0.00000086    0.00000909
     atom  114 type  1   force =    -0.00000736   -0.00000075    0.00000914
     atom  115 type  1   force =    -0.00000421   -0.00001296    0.00000923
     atom  116 type  1   force =    -0.00000244    0.00000603    0.00000263
     atom  117 type  1   force =    -0.00000991   -0.00000050    0.00000966
     atom  118 type  1   force =    -0.00000867    0.00000050    0.00001018
     atom  119 type  1   force =    -0.00000279   -0.00000445    0.00000766
     atom  120 type  1   force =    -0.00000831   -0.00000014    0.00001116
     atom  121 type  1   force =    -0.00000241    0.00000750    0.00000241
     atom  122 type  1   force =    -0.00001217   -0.00000109    0.00001217
     atom  123 type  1   force =    -0.00000459   -0.00000654    0.00000459
     atom  124 type  1   force =    -0.00000809   -0.00000060    0.00000809
     atom  125 type  1   force =    -0.00000863   -0.00000289    0.00000863
     atom  126 type  1   force =    -0.00122612    0.00101434    0.00122612
     atom  127 type  1   force =     0.00000611   -0.00002167   -0.00000611
     atom  128 type  1   force =     0.00001115   -0.00000048   -0.00001115
     atom  129 type  1   force =     0.00000622    0.00001726   -0.00000622
     atom  130 type  1   force =    -0.00119268   -0.00097442    0.00119268
     atom  131 type  1   force =    -0.00003363   -0.00001023   -0.00001588
     atom  132 type  1   force =     0.00001278    0.00000152   -0.00001104
     atom  133 type  1   force =     0.00001374   -0.00000308   -0.00001268
     atom  134 type  1   force =     0.00001691    0.00000746    0.00003535
     atom  135 type  1   force =     0.00003322   -0.00000012   -0.00003124
     atom  136 type  1   force =    -0.00002206   -0.00000268   -0.00000518
     atom  137 type  1   force =     0.00001597    0.00000070   -0.00001494
     atom  138 type  1   force =     0.00000894    0.00000473    0.00002375
     atom  139 type  1   force =     0.00001208   -0.00000190   -0.00001203
     atom  140 type  1   force =     0.00001611    0.00000066   -0.00000940
     atom  141 type  1   force =    -0.00005485    0.00000972    0.00000136
     atom  142 type  1   force =    -0.00000320   -0.00001030    0.00005430
     atom  143 type  1   force =     0.00001294   -0.00000262   -0.00001282
     atom  144 type  1   force =     0.00001112   -0.00000135   -0.00000824
     atom  145 type  1   force =     0.00001386    0.00000163   -0.00000998
     atom  146 type  1   force =    -0.00021306    0.00000371    0.00021800
     atom  147 type  1   force =     0.00001744   -0.00001108   -0.00002086
     atom  148 type  1   force =     0.00001117   -0.00000063   -0.00000888
     atom  149 type  1   force =     0.00000849    0.00000023   -0.00000866
     atom  150 type  1   force =     0.00002380    0.00001041   -0.00001753
     atom  151 type  1   force =     0.00001588   -0.00001023    0.00003363
     atom  152 type  1   force =     0.00001104    0.00000152   -0.00001278
     atom  153 type  1   force =     0.00001268   -0.00000308   -0.00001374
     atom  154 type  1   force =    -0.00003535    0.00000746   -0.00001691
     atom  155 type  1   force =     0.00003124   -0.00000012   -0.00003322
     atom  156 type  1   force =     0.00000244   -0.00000594   -0.00000244
     atom  157 type  1   force =     0.00000848    0.00000070   -0.00000848
     atom  158 type  1   force =     0.00000435    0.00000603   -0.00000435
     atom  159 type  1   force =     0.00000968   -0.00000093   -0.00000968
     atom  160 type  1   force =     0.00001058    0.00000021   -0.00001058
     atom  161 type  1   force =     0.00000534   -0.00000818   -0.00000501
     atom  162 type  1   force =     0.00000775    0.00001059   -0.00000639
     atom  163 type  1   force =     0.00001021    0.00000103   -0.00000701
     atom  164 type  1   force =     0.00000946   -0.00000039   -0.00000893
     atom  165 type  1   force =     0.00000806    0.00000116   -0.00000655
     atom  166 type  1   force =     0.00000719   -0.00000114   -0.00000861
     atom  167 type  1   force =     0.00000935   -0.00000112   -0.00001026
     atom  168 type  1   force =     0.00001028    0.00000054   -0.00000838
     atom  169 type  1   force =     0.00000867    0.00000155   -0.00000636
     atom  170 type  1   force =     0.00001021    0.00000101   -0.00000938
     atom  171 type  1   force =     0.00000487   -0.00002247   -0.00000930
     atom  172 type  1   force =     0.00000827   -0.00000031   -0.00000931
     atom  173 type  1   force =     0.00000913    0.00000001   -0.00000828
     atom  174 type  1   force =     0.00000951   -0.00000155   -0.00000833
     atom  175 type  1   force =     0.00001066    0.00002241   -0.00000608
     atom  176 type  1   force =     0.00000518   -0.00000268    0.00002206
     atom  177 type  1   force =     0.00001494    0.00000070   -0.00001597
     atom  178 type  1   force =    -0.00002375    0.00000473   -0.00000894
     atom  179 type  1   force =     0.00001203   -0.00000190   -0.00001208
     atom  180 type  1   force =     0.00000940    0.00000066   -0.00001611
     atom  181 type  1   force =     0.00000501   -0.00000818   -0.00000534
     atom  182 type  1   force =     0.00000639    0.00001059   -0.00000775
     atom  183 type  1   force =     0.00000701    0.00000103   -0.00001021
     atom  184 type  1   force =     0.00000893   -0.00000039   -0.00000946
     atom  185 type  1   force =     0.00000655    0.00000116   -0.00000806
     atom  186 type  1   force =     0.00000370    0.00000012   -0.00000370
     atom  187 type  1   force =     0.00000932    0.00000096   -0.00000932
     atom  188 type  1   force =     0.00000871    0.00000047   -0.00000871
     atom  189 type  1   force =     0.00000705    0.00000020   -0.00000705
     atom  190 type  1   force =     0.00000770    0.00000063   -0.00000770
     atom  191 type  1   force =     0.00000571   -0.00000718   -0.00000751
     atom  192 type  1   force =     0.00000933    0.00000011   -0.00000796
     atom  193 type  1   force =     0.00000862    0.00000207   -0.00000739
     atom  194 type  1   force =     0.00000820    0.00000023   -0.00000739
     atom  195 type  1   force =     0.00000392    0.00000877   -0.00000712
     atom  196 type  1   force =     0.00000458   -0.00000536   -0.00000662
     atom  197 type  1   force =     0.00000786   -0.00000005   -0.00000848
     atom  198 type  1   force =     0.00000852    0.00000034   -0.00000948
     atom  199 type  1   force =     0.00000389    0.00000589   -0.00000485
     atom  200 type  1   force =     0.00000813    0.00000159   -0.00001101
     atom  201 type  1   force =    -0.00000136    0.00000972    0.00005485
     atom  202 type  1   force =    -0.00005430   -0.00001030    0.00000320
     atom  203 type  1   force =     0.00001282   -0.00000262   -0.00001294
     atom  204 type  1   force =     0.00000824   -0.00000135   -0.00001112
     atom  205 type  1   force =     0.00000998    0.00000163   -0.00001386
     atom  206 type  1   force =     0.00000861   -0.00000114   -0.00000719
     atom  207 type  1   force =     0.00001026   -0.00000112   -0.00000935
     atom  208 type  1   force =     0.00000838    0.00000054   -0.00001028
     atom  209 type  1   force =     0.00000636    0.00000155   -0.00000867
     atom  210 type  1   force =     0.00000938    0.00000101   -0.00001021
     atom  211 type  1   force =     0.00000751   -0.00000718   -0.00000571
     atom  212 type  1   force =     0.00000796    0.00000011   -0.00000933
     atom  213 type  1   force =     0.00000739    0.00000207   -0.00000862
     atom  214 type  1   force =     0.00000739    0.00000023   -0.00000820
     atom  215 type  1   force =     0.00000712    0.00000877   -0.00000392
     atom  216 type  1   force =     0.00000771   -0.00000311   -0.00000771
     atom  217 type  1   force =     0.00000778    0.00000090   -0.00000778
     atom  218 type  1   force =     0.00000854    0.00000097   -0.00000854
     atom  219 type  1   force =     0.00000412    0.00000517   -0.00000412
     atom  220 type  1   force =     0.00000800    0.00000085   -0.00000800
     atom  221 type  1   force =     0.00000355   -0.00000454   -0.00000597
     atom  222 type  1   force =     0.00000936   -0.00000074   -0.00001002
     atom  223 type  1   force =     0.00000304    0.00000642   -0.00000320
     atom  224 type  1   force =     0.00000706   -0.00000038   -0.00001010
     atom  225 type  1   force =     0.00000804   -0.00000090   -0.00001024
     atom  226 type  1   force =    -0.00021800    0.00000371    0.00021306
     atom  227 type  1   force =     0.00002086   -0.00001108   -0.00001744
     atom  228 type  1   force =     0.00000888   -0.00000063   -0.00001117
     atom  229 type  1   force =     0.00000866    0.00000023   -0.00000849
     atom  230 type  1   force =     0.00001753    0.00001041   -0.00002380
     atom  231 type  1   force =     0.00000930   -0.00002247   -0.00000487
     atom  232 type  1   force =     0.00000931   -0.00000031   -0.00000827
     atom  233 type  1   force =     0.00000828    0.00000001   -0.00000913
     atom  234 type  1   force =     0.00000833   -0.00000155   -0.00000951
     atom  235 type  1   force =     0.00000608    0.00002241   -0.00001066
     atom  236 type  1   force =     0.00000662   -0.00000536   -0.00000458
     atom  237 type  1   force =     0.00000848   -0.00000005   -0.00000786
     atom  238 type  1   force =     0.00000948    0.00000034   -0.00000852
     atom  239 type  1   force =     0.00000485    0.00000589   -0.00000389
     atom  240 type  1   force =     0.00001101    0.00000159   -0.00000813
     atom  241 type  1   force =     0.00000597   -0.00000454   -0.00000355
     atom  242 type  1   force =     0.00001002   -0.00000074   -0.00000936
     atom  243 type  1   force =     0.00000320    0.00000642   -0.00000304
     atom  244 type  1   force =     0.00001010   -0.00000038   -0.00000706
     atom  245 type  1   force =     0.00001024   -0.00000090   -0.00000804
     atom  246 type  1   force =     0.00000017   -0.00001282   -0.00000017
     atom  247 type  1   force =    -0.00000193    0.00001151    0.00000193
     atom  248 type  1   force =     0.00000997   -0.00000116   -0.00000997
     atom  249 type  1   force =     0.00000962   -0.00000159   -0.00000962
     atom  250 type  1   force =     0.00000977   -0.00000041   -0.00000977

     Total force =     0.004993     Total SCF correction =     0.000049

     Writing all to output data dir ./tmp/Ge_super.save/ :
     XML data file, charge density, pseudopotentials, collected wavefunctions

     init_run     :    149.45s CPU    154.62s WALL (       1 calls)
     electrons    :   6314.55s CPU   6490.60s WALL (       1 calls)
     forces       :     42.55s CPU     43.07s WALL (       1 calls)

     Called by init_run:
     wfcinit      :    141.94s CPU    147.00s WALL (       1 calls)
     potinit      :      0.92s CPU      0.95s WALL (       1 calls)
     hinit0       :      0.15s CPU      0.17s WALL (       1 calls)

     Called by electrons:
     c_bands      :   5721.57s CPU   5879.68s WALL (      25 calls)
     sum_band     :    565.78s CPU    583.14s WALL (      25 calls)
     v_of_rho     :      3.84s CPU      4.03s WALL (      25 calls)
     newd         :      2.65s CPU      2.77s WALL (      25 calls)
     PAW_pot      :     17.96s CPU     18.00s WALL (      25 calls)
     mix_rho      :      1.26s CPU      1.38s WALL (      25 calls)

     Called by c_bands:
     init_us_2    :     21.85s CPU     22.09s WALL (      52 calls)
     cegterg      :   5258.50s CPU   5415.27s WALL (      26 calls)

     Called by *egterg:
     cdiaghg      :    340.25s CPU    356.01s WALL (     165 calls)
     h_psi        :   2337.76s CPU   2459.38s WALL (     167 calls)
     s_psi        :    605.89s CPU    609.06s WALL (     167 calls)
     g_psi        :      4.48s CPU      4.49s WALL (     140 calls)

     Called by h_psi:
     h_psi:calbec :    633.31s CPU    637.06s WALL (     167 calls)
     vloc_psi     :   1087.12s CPU   1198.37s WALL (     167 calls)
     add_vuspsi   :    609.60s CPU    612.68s WALL (     167 calls)

     General routines
     calbec       :    917.56s CPU    922.86s WALL (     196 calls)
     fft          :      1.97s CPU      2.24s WALL (     287 calls)
     ffts         :      0.15s CPU      0.17s WALL (      25 calls)
     fftw         :    995.69s CPU   1105.30s WALL (  319302 calls)

     Parallel routines

     PWSCF        :      1h48m CPU      1h53m WALL


   This run was terminated on:  23:48:33  20Mar2026            

=------------------------------------------------------------------------------=
   JOB DONE.
=------------------------------------------------------------------------------=
