phonopy:
  version: "3.2.0"
  calculator: qe
  frequency_unit_conversion_factor: 108.970772
  symmetry_tolerance: 1.00000e-05
  configuration:
    atom_name: "Ge"
    dim: "5 5 5"
    primitive_axes: "auto"
    band_points: "101"
    band_labels: "G L X G L X W L"
    band: "0.000   0.000   0.000  0.375  0.375  0.750   0.500   0.000   0.500  0.000   0.000   0.000  0.375  0.375  0.750  0.500   0.000   0.500  0.500   0.250   0.750  0.375  0.375  0.750"
    calculator: "qe"

physical_unit:
  atomic_mass: "AMU"
  length: "au"
  force: "Ry/au"
  force_constants: "Ry/au^2"

space_group:
  type: "Fd-3m"
  number: 227
  Hall_symbol: "F 4d 2 3 -1d"

primitive_matrix:
- [  0.000000000000000,  0.000000000000000, -1.000000000000000 ]
- [  1.000000000000000,  1.000000000000000,  1.000000000000000 ]
- [  0.000000000000000, -1.000000000000000,  0.000000000000000 ]

supercell_matrix:
- [   5,   0,   0 ]
- [   0,   5,   0 ]
- [   0,   0,   5 ]

primitive_cell:
  lattice:
  - [     0.000000000000000,     5.450361359001241,     5.450361359001241 ] # a
  - [     5.450361359001241,     0.000000000000000,     5.450361359001241 ] # b
  - [     5.450361359001241,     5.450361359001241,     0.000000000000000 ] # c
  points:
  - symbol: Ge # 1
    coordinates: [  0.000000000000000,  0.000000000000000,  0.000000000000000 ]
    mass: 72.640000
  - symbol: Ge # 2
    coordinates: [  0.750000000000000,  0.750000000000000,  0.750000000000000 ]
    mass: 72.640000
  reciprocal_lattice: # without 2pi
  - [    -0.091737036696522,     0.091737036696522,     0.091737036696522 ] # a*
  - [     0.091737036696522,    -0.091737036696522,     0.091737036696522 ] # b*
  - [     0.091737036696522,     0.091737036696522,    -0.091737036696522 ] # c*

unit_cell:
  lattice:
  - [    -5.450361359001240,     0.000000000000000,     5.450361359001240 ] # a
  - [     0.000000000000000,     5.450361359001240,     5.450361359001240 ] # b
  - [    -5.450361359001240,     5.450361359001240,     0.000000000000000 ] # c
  points:
  - symbol: Ge # 1
    coordinates: [  0.000000000000000,  0.000000000000000,  0.000000000000000 ]
    mass: 72.640000
    reduced_to: 1
  - symbol: Ge # 2
    coordinates: [  0.250000000000000,  0.250000000000000,  0.250000000000000 ]
    mass: 72.640000
    reduced_to: 2

supercell:
  lattice:
  - [   -27.251806795006203,     0.000000000000000,    27.251806795006203 ] # a
  - [     0.000000000000000,    27.251806795006203,    27.251806795006203 ] # b
  - [   -27.251806795006203,    27.251806795006203,     0.000000000000000 ] # c
  points:
  - symbol: Ge # 1
    coordinates: [  0.000000000000000,  0.000000000000000,  0.000000000000000 ]
    mass: 72.640000
    reduced_to: 1
  - symbol: Ge # 2
    coordinates: [  0.200000000000000,  0.000000000000000,  0.000000000000000 ]
    mass: 72.640000
    reduced_to: 1
  - symbol: Ge # 3
    coordinates: [  0.400000000000000,  0.000000000000000,  0.000000000000000 ]
    mass: 72.640000
    reduced_to: 1
  - symbol: Ge # 4
    coordinates: [  0.600000000000000,  0.000000000000000,  0.000000000000000 ]
    mass: 72.640000
    reduced_to: 1
  - symbol: Ge # 5
    coordinates: [  0.800000000000000,  0.000000000000000,  0.000000000000000 ]
    mass: 72.640000
    reduced_to: 1
  - symbol: Ge # 6
    coordinates: [  0.000000000000000,  0.200000000000000,  0.000000000000000 ]
    mass: 72.640000
    reduced_to: 1
  - symbol: Ge # 7
    coordinates: [  0.200000000000000,  0.200000000000000,  0.000000000000000 ]
    mass: 72.640000
    reduced_to: 1
  - symbol: Ge # 8
    coordinates: [  0.400000000000000,  0.200000000000000,  0.000000000000000 ]
    mass: 72.640000
    reduced_to: 1
  - symbol: Ge # 9
    coordinates: [  0.600000000000000,  0.200000000000000,  0.000000000000000 ]
    mass: 72.640000
    reduced_to: 1
  - symbol: Ge # 10
    coordinates: [  0.800000000000000,  0.200000000000000,  0.000000000000000 ]
    mass: 72.640000
    reduced_to: 1
  - symbol: Ge # 11
    coordinates: [  0.000000000000000,  0.400000000000000,  0.000000000000000 ]
    mass: 72.640000
    reduced_to: 1
  - symbol: Ge # 12
    coordinates: [  0.200000000000000,  0.400000000000000,  0.000000000000000 ]
    mass: 72.640000
    reduced_to: 1
  - symbol: Ge # 13
    coordinates: [  0.400000000000000,  0.400000000000000,  0.000000000000000 ]
    mass: 72.640000
    reduced_to: 1
  - symbol: Ge # 14
    coordinates: [  0.600000000000000,  0.400000000000000,  0.000000000000000 ]
    mass: 72.640000
    reduced_to: 1
  - symbol: Ge # 15
    coordinates: [  0.800000000000000,  0.400000000000000,  0.000000000000000 ]
    mass: 72.640000
    reduced_to: 1
  - symbol: Ge # 16
    coordinates: [  0.000000000000000,  0.600000000000000,  0.000000000000000 ]
    mass: 72.640000
    reduced_to: 1
  - symbol: Ge # 17
    coordinates: [  0.200000000000000,  0.600000000000000,  0.000000000000000 ]
    mass: 72.640000
    reduced_to: 1
  - symbol: Ge # 18
    coordinates: [  0.400000000000000,  0.600000000000000,  0.000000000000000 ]
    mass: 72.640000
    reduced_to: 1
  - symbol: Ge # 19
    coordinates: [  0.600000000000000,  0.600000000000000,  0.000000000000000 ]
    mass: 72.640000
    reduced_to: 1
  - symbol: Ge # 20
    coordinates: [  0.800000000000000,  0.600000000000000,  0.000000000000000 ]
    mass: 72.640000
    reduced_to: 1
  - symbol: Ge # 21
    coordinates: [  0.000000000000000,  0.800000000000000,  0.000000000000000 ]
    mass: 72.640000
    reduced_to: 1
  - symbol: Ge # 22
    coordinates: [  0.200000000000000,  0.800000000000000,  0.000000000000000 ]
    mass: 72.640000
    reduced_to: 1
  - symbol: Ge # 23
    coordinates: [  0.400000000000000,  0.800000000000000,  0.000000000000000 ]
    mass: 72.640000
    reduced_to: 1
  - symbol: Ge # 24
    coordinates: [  0.600000000000000,  0.800000000000000,  0.000000000000000 ]
    mass: 72.640000
    reduced_to: 1
  - symbol: Ge # 25
    coordinates: [  0.800000000000000,  0.800000000000000,  0.000000000000000 ]
    mass: 72.640000
    reduced_to: 1
  - symbol: Ge # 26
    coordinates: [  0.000000000000000,  0.000000000000000,  0.200000000000000 ]
    mass: 72.640000
    reduced_to: 1
  - symbol: Ge # 27
    coordinates: [  0.200000000000000,  0.000000000000000,  0.200000000000000 ]
    mass: 72.640000
    reduced_to: 1
  - symbol: Ge # 28
    coordinates: [  0.400000000000000,  0.000000000000000,  0.200000000000000 ]
    mass: 72.640000
    reduced_to: 1
  - symbol: Ge # 29
    coordinates: [  0.600000000000000,  0.000000000000000,  0.200000000000000 ]
    mass: 72.640000
    reduced_to: 1
  - symbol: Ge # 30
    coordinates: [  0.800000000000000,  0.000000000000000,  0.200000000000000 ]
    mass: 72.640000
    reduced_to: 1
  - symbol: Ge # 31
    coordinates: [  0.000000000000000,  0.200000000000000,  0.200000000000000 ]
    mass: 72.640000
    reduced_to: 1
  - symbol: Ge # 32
    coordinates: [  0.200000000000000,  0.200000000000000,  0.200000000000000 ]
    mass: 72.640000
    reduced_to: 1
  - symbol: Ge # 33
    coordinates: [  0.400000000000000,  0.200000000000000,  0.200000000000000 ]
    mass: 72.640000
    reduced_to: 1
  - symbol: Ge # 34
    coordinates: [  0.600000000000000,  0.200000000000000,  0.200000000000000 ]
    mass: 72.640000
    reduced_to: 1
  - symbol: Ge # 35
    coordinates: [  0.800000000000000,  0.200000000000000,  0.200000000000000 ]
    mass: 72.640000
    reduced_to: 1
  - symbol: Ge # 36
    coordinates: [  0.000000000000000,  0.400000000000000,  0.200000000000000 ]
    mass: 72.640000
    reduced_to: 1
  - symbol: Ge # 37
    coordinates: [  0.200000000000000,  0.400000000000000,  0.200000000000000 ]
    mass: 72.640000
    reduced_to: 1
  - symbol: Ge # 38
    coordinates: [  0.400000000000000,  0.400000000000000,  0.200000000000000 ]
    mass: 72.640000
    reduced_to: 1
  - symbol: Ge # 39
    coordinates: [  0.600000000000000,  0.400000000000000,  0.200000000000000 ]
    mass: 72.640000
    reduced_to: 1
  - symbol: Ge # 40
    coordinates: [  0.800000000000000,  0.400000000000000,  0.200000000000000 ]
    mass: 72.640000
    reduced_to: 1
  - symbol: Ge # 41
    coordinates: [  0.000000000000000,  0.600000000000000,  0.200000000000000 ]
    mass: 72.640000
    reduced_to: 1
  - symbol: Ge # 42
    coordinates: [  0.200000000000000,  0.600000000000000,  0.200000000000000 ]
    mass: 72.640000
    reduced_to: 1
  - symbol: Ge # 43
    coordinates: [  0.400000000000000,  0.600000000000000,  0.200000000000000 ]
    mass: 72.640000
    reduced_to: 1
  - symbol: Ge # 44
    coordinates: [  0.600000000000000,  0.600000000000000,  0.200000000000000 ]
    mass: 72.640000
    reduced_to: 1
  - symbol: Ge # 45
    coordinates: [  0.800000000000000,  0.600000000000000,  0.200000000000000 ]
    mass: 72.640000
    reduced_to: 1
  - symbol: Ge # 46
    coordinates: [  0.000000000000000,  0.800000000000000,  0.200000000000000 ]
    mass: 72.640000
    reduced_to: 1
  - symbol: Ge # 47
    coordinates: [  0.200000000000000,  0.800000000000000,  0.200000000000000 ]
    mass: 72.640000
    reduced_to: 1
  - symbol: Ge # 48
    coordinates: [  0.400000000000000,  0.800000000000000,  0.200000000000000 ]
    mass: 72.640000
    reduced_to: 1
  - symbol: Ge # 49
    coordinates: [  0.600000000000000,  0.800000000000000,  0.200000000000000 ]
    mass: 72.640000
    reduced_to: 1
  - symbol: Ge # 50
    coordinates: [  0.800000000000000,  0.800000000000000,  0.200000000000000 ]
    mass: 72.640000
    reduced_to: 1
  - symbol: Ge # 51
    coordinates: [  0.000000000000000,  0.000000000000000,  0.400000000000000 ]
    mass: 72.640000
    reduced_to: 1
  - symbol: Ge # 52
    coordinates: [  0.200000000000000,  0.000000000000000,  0.400000000000000 ]
    mass: 72.640000
    reduced_to: 1
  - symbol: Ge # 53
    coordinates: [  0.400000000000000,  0.000000000000000,  0.400000000000000 ]
    mass: 72.640000
    reduced_to: 1
  - symbol: Ge # 54
    coordinates: [  0.600000000000000,  0.000000000000000,  0.400000000000000 ]
    mass: 72.640000
    reduced_to: 1
  - symbol: Ge # 55
    coordinates: [  0.800000000000000,  0.000000000000000,  0.400000000000000 ]
    mass: 72.640000
    reduced_to: 1
  - symbol: Ge # 56
    coordinates: [  0.000000000000000,  0.200000000000000,  0.400000000000000 ]
    mass: 72.640000
    reduced_to: 1
  - symbol: Ge # 57
    coordinates: [  0.200000000000000,  0.200000000000000,  0.400000000000000 ]
    mass: 72.640000
    reduced_to: 1
  - symbol: Ge # 58
    coordinates: [  0.400000000000000,  0.200000000000000,  0.400000000000000 ]
    mass: 72.640000
    reduced_to: 1
  - symbol: Ge # 59
    coordinates: [  0.600000000000000,  0.200000000000000,  0.400000000000000 ]
    mass: 72.640000
    reduced_to: 1
  - symbol: Ge # 60
    coordinates: [  0.800000000000000,  0.200000000000000,  0.400000000000000 ]
    mass: 72.640000
    reduced_to: 1
  - symbol: Ge # 61
    coordinates: [  0.000000000000000,  0.400000000000000,  0.400000000000000 ]
    mass: 72.640000
    reduced_to: 1
  - symbol: Ge # 62
    coordinates: [  0.200000000000000,  0.400000000000000,  0.400000000000000 ]
    mass: 72.640000
    reduced_to: 1
  - symbol: Ge # 63
    coordinates: [  0.400000000000000,  0.400000000000000,  0.400000000000000 ]
    mass: 72.640000
    reduced_to: 1
  - symbol: Ge # 64
    coordinates: [  0.600000000000000,  0.400000000000000,  0.400000000000000 ]
    mass: 72.640000
    reduced_to: 1
  - symbol: Ge # 65
    coordinates: [  0.800000000000000,  0.400000000000000,  0.400000000000000 ]
    mass: 72.640000
    reduced_to: 1
  - symbol: Ge # 66
    coordinates: [  0.000000000000000,  0.600000000000000,  0.400000000000000 ]
    mass: 72.640000
    reduced_to: 1
  - symbol: Ge # 67
    coordinates: [  0.200000000000000,  0.600000000000000,  0.400000000000000 ]
    mass: 72.640000
    reduced_to: 1
  - symbol: Ge # 68
    coordinates: [  0.400000000000000,  0.600000000000000,  0.400000000000000 ]
    mass: 72.640000
    reduced_to: 1
  - symbol: Ge # 69
    coordinates: [  0.600000000000000,  0.600000000000000,  0.400000000000000 ]
    mass: 72.640000
    reduced_to: 1
  - symbol: Ge # 70
    coordinates: [  0.800000000000000,  0.600000000000000,  0.400000000000000 ]
    mass: 72.640000
    reduced_to: 1
  - symbol: Ge # 71
    coordinates: [  0.000000000000000,  0.800000000000000,  0.400000000000000 ]
    mass: 72.640000
    reduced_to: 1
  - symbol: Ge # 72
    coordinates: [  0.200000000000000,  0.800000000000000,  0.400000000000000 ]
    mass: 72.640000
    reduced_to: 1
  - symbol: Ge # 73
    coordinates: [  0.400000000000000,  0.800000000000000,  0.400000000000000 ]
    mass: 72.640000
    reduced_to: 1
  - symbol: Ge # 74
    coordinates: [  0.600000000000000,  0.800000000000000,  0.400000000000000 ]
    mass: 72.640000
    reduced_to: 1
  - symbol: Ge # 75
    coordinates: [  0.800000000000000,  0.800000000000000,  0.400000000000000 ]
    mass: 72.640000
    reduced_to: 1
  - symbol: Ge # 76
    coordinates: [  0.000000000000000,  0.000000000000000,  0.600000000000000 ]
    mass: 72.640000
    reduced_to: 1
  - symbol: Ge # 77
    coordinates: [  0.200000000000000,  0.000000000000000,  0.600000000000000 ]
    mass: 72.640000
    reduced_to: 1
  - symbol: Ge # 78
    coordinates: [  0.400000000000000,  0.000000000000000,  0.600000000000000 ]
    mass: 72.640000
    reduced_to: 1
  - symbol: Ge # 79
    coordinates: [  0.600000000000000,  0.000000000000000,  0.600000000000000 ]
    mass: 72.640000
    reduced_to: 1
  - symbol: Ge # 80
    coordinates: [  0.800000000000000,  0.000000000000000,  0.600000000000000 ]
    mass: 72.640000
    reduced_to: 1
  - symbol: Ge # 81
    coordinates: [  0.000000000000000,  0.200000000000000,  0.600000000000000 ]
    mass: 72.640000
    reduced_to: 1
  - symbol: Ge # 82
    coordinates: [  0.200000000000000,  0.200000000000000,  0.600000000000000 ]
    mass: 72.640000
    reduced_to: 1
  - symbol: Ge # 83
    coordinates: [  0.400000000000000,  0.200000000000000,  0.600000000000000 ]
    mass: 72.640000
    reduced_to: 1
  - symbol: Ge # 84
    coordinates: [  0.600000000000000,  0.200000000000000,  0.600000000000000 ]
    mass: 72.640000
    reduced_to: 1
  - symbol: Ge # 85
    coordinates: [  0.800000000000000,  0.200000000000000,  0.600000000000000 ]
    mass: 72.640000
    reduced_to: 1
  - symbol: Ge # 86
    coordinates: [  0.000000000000000,  0.400000000000000,  0.600000000000000 ]
    mass: 72.640000
    reduced_to: 1
  - symbol: Ge # 87
    coordinates: [  0.200000000000000,  0.400000000000000,  0.600000000000000 ]
    mass: 72.640000
    reduced_to: 1
  - symbol: Ge # 88
    coordinates: [  0.400000000000000,  0.400000000000000,  0.600000000000000 ]
    mass: 72.640000
    reduced_to: 1
  - symbol: Ge # 89
    coordinates: [  0.600000000000000,  0.400000000000000,  0.600000000000000 ]
    mass: 72.640000
    reduced_to: 1
  - symbol: Ge # 90
    coordinates: [  0.800000000000000,  0.400000000000000,  0.600000000000000 ]
    mass: 72.640000
    reduced_to: 1
  - symbol: Ge # 91
    coordinates: [  0.000000000000000,  0.600000000000000,  0.600000000000000 ]
    mass: 72.640000
    reduced_to: 1
  - symbol: Ge # 92
    coordinates: [  0.200000000000000,  0.600000000000000,  0.600000000000000 ]
    mass: 72.640000
    reduced_to: 1
  - symbol: Ge # 93
    coordinates: [  0.400000000000000,  0.600000000000000,  0.600000000000000 ]
    mass: 72.640000
    reduced_to: 1
  - symbol: Ge # 94
    coordinates: [  0.600000000000000,  0.600000000000000,  0.600000000000000 ]
    mass: 72.640000
    reduced_to: 1
  - symbol: Ge # 95
    coordinates: [  0.800000000000000,  0.600000000000000,  0.600000000000000 ]
    mass: 72.640000
    reduced_to: 1
  - symbol: Ge # 96
    coordinates: [  0.000000000000000,  0.800000000000000,  0.600000000000000 ]
    mass: 72.640000
    reduced_to: 1
  - symbol: Ge # 97
    coordinates: [  0.200000000000000,  0.800000000000000,  0.600000000000000 ]
    mass: 72.640000
    reduced_to: 1
  - symbol: Ge # 98
    coordinates: [  0.400000000000000,  0.800000000000000,  0.600000000000000 ]
    mass: 72.640000
    reduced_to: 1
  - symbol: Ge # 99
    coordinates: [  0.600000000000000,  0.800000000000000,  0.600000000000000 ]
    mass: 72.640000
    reduced_to: 1
  - symbol: Ge # 100
    coordinates: [  0.800000000000000,  0.800000000000000,  0.600000000000000 ]
    mass: 72.640000
    reduced_to: 1
  - symbol: Ge # 101
    coordinates: [  0.000000000000000,  0.000000000000000,  0.800000000000000 ]
    mass: 72.640000
    reduced_to: 1
  - symbol: Ge # 102
    coordinates: [  0.200000000000000,  0.000000000000000,  0.800000000000000 ]
    mass: 72.640000
    reduced_to: 1
  - symbol: Ge # 103
    coordinates: [  0.400000000000000,  0.000000000000000,  0.800000000000000 ]
    mass: 72.640000
    reduced_to: 1
  - symbol: Ge # 104
    coordinates: [  0.600000000000000,  0.000000000000000,  0.800000000000000 ]
    mass: 72.640000
    reduced_to: 1
  - symbol: Ge # 105
    coordinates: [  0.800000000000000,  0.000000000000000,  0.800000000000000 ]
    mass: 72.640000
    reduced_to: 1
  - symbol: Ge # 106
    coordinates: [  0.000000000000000,  0.200000000000000,  0.800000000000000 ]
    mass: 72.640000
    reduced_to: 1
  - symbol: Ge # 107
    coordinates: [  0.200000000000000,  0.200000000000000,  0.800000000000000 ]
    mass: 72.640000
    reduced_to: 1
  - symbol: Ge # 108
    coordinates: [  0.400000000000000,  0.200000000000000,  0.800000000000000 ]
    mass: 72.640000
    reduced_to: 1
  - symbol: Ge # 109
    coordinates: [  0.600000000000000,  0.200000000000000,  0.800000000000000 ]
    mass: 72.640000
    reduced_to: 1
  - symbol: Ge # 110
    coordinates: [  0.800000000000000,  0.200000000000000,  0.800000000000000 ]
    mass: 72.640000
    reduced_to: 1
  - symbol: Ge # 111
    coordinates: [  0.000000000000000,  0.400000000000000,  0.800000000000000 ]
    mass: 72.640000
    reduced_to: 1
  - symbol: Ge # 112
    coordinates: [  0.200000000000000,  0.400000000000000,  0.800000000000000 ]
    mass: 72.640000
    reduced_to: 1
  - symbol: Ge # 113
    coordinates: [  0.400000000000000,  0.400000000000000,  0.800000000000000 ]
    mass: 72.640000
    reduced_to: 1
  - symbol: Ge # 114
    coordinates: [  0.600000000000000,  0.400000000000000,  0.800000000000000 ]
    mass: 72.640000
    reduced_to: 1
  - symbol: Ge # 115
    coordinates: [  0.800000000000000,  0.400000000000000,  0.800000000000000 ]
    mass: 72.640000
    reduced_to: 1
  - symbol: Ge # 116
    coordinates: [  0.000000000000000,  0.600000000000000,  0.800000000000000 ]
    mass: 72.640000
    reduced_to: 1
  - symbol: Ge # 117
    coordinates: [  0.200000000000000,  0.600000000000000,  0.800000000000000 ]
    mass: 72.640000
    reduced_to: 1
  - symbol: Ge # 118
    coordinates: [  0.400000000000000,  0.600000000000000,  0.800000000000000 ]
    mass: 72.640000
    reduced_to: 1
  - symbol: Ge # 119
    coordinates: [  0.600000000000000,  0.600000000000000,  0.800000000000000 ]
    mass: 72.640000
    reduced_to: 1
  - symbol: Ge # 120
    coordinates: [  0.800000000000000,  0.600000000000000,  0.800000000000000 ]
    mass: 72.640000
    reduced_to: 1
  - symbol: Ge # 121
    coordinates: [  0.000000000000000,  0.800000000000000,  0.800000000000000 ]
    mass: 72.640000
    reduced_to: 1
  - symbol: Ge # 122
    coordinates: [  0.200000000000000,  0.800000000000000,  0.800000000000000 ]
    mass: 72.640000
    reduced_to: 1
  - symbol: Ge # 123
    coordinates: [  0.400000000000000,  0.800000000000000,  0.800000000000000 ]
    mass: 72.640000
    reduced_to: 1
  - symbol: Ge # 124
    coordinates: [  0.600000000000000,  0.800000000000000,  0.800000000000000 ]
    mass: 72.640000
    reduced_to: 1
  - symbol: Ge # 125
    coordinates: [  0.800000000000000,  0.800000000000000,  0.800000000000000 ]
    mass: 72.640000
    reduced_to: 1
  - symbol: Ge # 126
    coordinates: [  0.050000000000000,  0.050000000000000,  0.050000000000000 ]
    mass: 72.640000
    reduced_to: 126
  - symbol: Ge # 127
    coordinates: [  0.250000000000000,  0.050000000000000,  0.050000000000000 ]
    mass: 72.640000
    reduced_to: 126
  - symbol: Ge # 128
    coordinates: [  0.450000000000000,  0.050000000000000,  0.050000000000000 ]
    mass: 72.640000
    reduced_to: 126
  - symbol: Ge # 129
    coordinates: [  0.650000000000000,  0.050000000000000,  0.050000000000000 ]
    mass: 72.640000
    reduced_to: 126
  - symbol: Ge # 130
    coordinates: [  0.850000000000000,  0.050000000000000,  0.050000000000000 ]
    mass: 72.640000
    reduced_to: 126
  - symbol: Ge # 131
    coordinates: [  0.050000000000000,  0.250000000000000,  0.050000000000000 ]
    mass: 72.640000
    reduced_to: 126
  - symbol: Ge # 132
    coordinates: [  0.250000000000000,  0.250000000000000,  0.050000000000000 ]
    mass: 72.640000
    reduced_to: 126
  - symbol: Ge # 133
    coordinates: [  0.450000000000000,  0.250000000000000,  0.050000000000000 ]
    mass: 72.640000
    reduced_to: 126
  - symbol: Ge # 134
    coordinates: [  0.650000000000000,  0.250000000000000,  0.050000000000000 ]
    mass: 72.640000
    reduced_to: 126
  - symbol: Ge # 135
    coordinates: [  0.850000000000000,  0.250000000000000,  0.050000000000000 ]
    mass: 72.640000
    reduced_to: 126
  - symbol: Ge # 136
    coordinates: [  0.050000000000000,  0.450000000000000,  0.050000000000000 ]
    mass: 72.640000
    reduced_to: 126
  - symbol: Ge # 137
    coordinates: [  0.250000000000000,  0.450000000000000,  0.050000000000000 ]
    mass: 72.640000
    reduced_to: 126
  - symbol: Ge # 138
    coordinates: [  0.450000000000000,  0.450000000000000,  0.050000000000000 ]
    mass: 72.640000
    reduced_to: 126
  - symbol: Ge # 139
    coordinates: [  0.650000000000000,  0.450000000000000,  0.050000000000000 ]
    mass: 72.640000
    reduced_to: 126
  - symbol: Ge # 140
    coordinates: [  0.850000000000000,  0.450000000000000,  0.050000000000000 ]
    mass: 72.640000
    reduced_to: 126
  - symbol: Ge # 141
    coordinates: [  0.050000000000000,  0.650000000000000,  0.050000000000000 ]
    mass: 72.640000
    reduced_to: 126
  - symbol: Ge # 142
    coordinates: [  0.250000000000000,  0.650000000000000,  0.050000000000000 ]
    mass: 72.640000
    reduced_to: 126
  - symbol: Ge # 143
    coordinates: [  0.450000000000000,  0.650000000000000,  0.050000000000000 ]
    mass: 72.640000
    reduced_to: 126
  - symbol: Ge # 144
    coordinates: [  0.650000000000000,  0.650000000000000,  0.050000000000000 ]
    mass: 72.640000
    reduced_to: 126
  - symbol: Ge # 145
    coordinates: [  0.850000000000000,  0.650000000000000,  0.050000000000000 ]
    mass: 72.640000
    reduced_to: 126
  - symbol: Ge # 146
    coordinates: [  0.050000000000000,  0.850000000000000,  0.050000000000000 ]
    mass: 72.640000
    reduced_to: 126
  - symbol: Ge # 147
    coordinates: [  0.250000000000000,  0.850000000000000,  0.050000000000000 ]
    mass: 72.640000
    reduced_to: 126
  - symbol: Ge # 148
    coordinates: [  0.450000000000000,  0.850000000000000,  0.050000000000000 ]
    mass: 72.640000
    reduced_to: 126
  - symbol: Ge # 149
    coordinates: [  0.650000000000000,  0.850000000000000,  0.050000000000000 ]
    mass: 72.640000
    reduced_to: 126
  - symbol: Ge # 150
    coordinates: [  0.850000000000000,  0.850000000000000,  0.050000000000000 ]
    mass: 72.640000
    reduced_to: 126
  - symbol: Ge # 151
    coordinates: [  0.050000000000000,  0.050000000000000,  0.250000000000000 ]
    mass: 72.640000
    reduced_to: 126
  - symbol: Ge # 152
    coordinates: [  0.250000000000000,  0.050000000000000,  0.250000000000000 ]
    mass: 72.640000
    reduced_to: 126
  - symbol: Ge # 153
    coordinates: [  0.450000000000000,  0.050000000000000,  0.250000000000000 ]
    mass: 72.640000
    reduced_to: 126
  - symbol: Ge # 154
    coordinates: [  0.650000000000000,  0.050000000000000,  0.250000000000000 ]
    mass: 72.640000
    reduced_to: 126
  - symbol: Ge # 155
    coordinates: [  0.850000000000000,  0.050000000000000,  0.250000000000000 ]
    mass: 72.640000
    reduced_to: 126
  - symbol: Ge # 156
    coordinates: [  0.050000000000000,  0.250000000000000,  0.250000000000000 ]
    mass: 72.640000
    reduced_to: 126
  - symbol: Ge # 157
    coordinates: [  0.250000000000000,  0.250000000000000,  0.250000000000000 ]
    mass: 72.640000
    reduced_to: 126
  - symbol: Ge # 158
    coordinates: [  0.450000000000000,  0.250000000000000,  0.250000000000000 ]
    mass: 72.640000
    reduced_to: 126
  - symbol: Ge # 159
    coordinates: [  0.650000000000000,  0.250000000000000,  0.250000000000000 ]
    mass: 72.640000
    reduced_to: 126
  - symbol: Ge # 160
    coordinates: [  0.850000000000000,  0.250000000000000,  0.250000000000000 ]
    mass: 72.640000
    reduced_to: 126
  - symbol: Ge # 161
    coordinates: [  0.050000000000000,  0.450000000000000,  0.250000000000000 ]
    mass: 72.640000
    reduced_to: 126
  - symbol: Ge # 162
    coordinates: [  0.250000000000000,  0.450000000000000,  0.250000000000000 ]
    mass: 72.640000
    reduced_to: 126
  - symbol: Ge # 163
    coordinates: [  0.450000000000000,  0.450000000000000,  0.250000000000000 ]
    mass: 72.640000
    reduced_to: 126
  - symbol: Ge # 164
    coordinates: [  0.650000000000000,  0.450000000000000,  0.250000000000000 ]
    mass: 72.640000
    reduced_to: 126
  - symbol: Ge # 165
    coordinates: [  0.850000000000000,  0.450000000000000,  0.250000000000000 ]
    mass: 72.640000
    reduced_to: 126
  - symbol: Ge # 166
    coordinates: [  0.050000000000000,  0.650000000000000,  0.250000000000000 ]
    mass: 72.640000
    reduced_to: 126
  - symbol: Ge # 167
    coordinates: [  0.250000000000000,  0.650000000000000,  0.250000000000000 ]
    mass: 72.640000
    reduced_to: 126
  - symbol: Ge # 168
    coordinates: [  0.450000000000000,  0.650000000000000,  0.250000000000000 ]
    mass: 72.640000
    reduced_to: 126
  - symbol: Ge # 169
    coordinates: [  0.650000000000000,  0.650000000000000,  0.250000000000000 ]
    mass: 72.640000
    reduced_to: 126
  - symbol: Ge # 170
    coordinates: [  0.850000000000000,  0.650000000000000,  0.250000000000000 ]
    mass: 72.640000
    reduced_to: 126
  - symbol: Ge # 171
    coordinates: [  0.050000000000000,  0.850000000000000,  0.250000000000000 ]
    mass: 72.640000
    reduced_to: 126
  - symbol: Ge # 172
    coordinates: [  0.250000000000000,  0.850000000000000,  0.250000000000000 ]
    mass: 72.640000
    reduced_to: 126
  - symbol: Ge # 173
    coordinates: [  0.450000000000000,  0.850000000000000,  0.250000000000000 ]
    mass: 72.640000
    reduced_to: 126
  - symbol: Ge # 174
    coordinates: [  0.650000000000000,  0.850000000000000,  0.250000000000000 ]
    mass: 72.640000
    reduced_to: 126
  - symbol: Ge # 175
    coordinates: [  0.850000000000000,  0.850000000000000,  0.250000000000000 ]
    mass: 72.640000
    reduced_to: 126
  - symbol: Ge # 176
    coordinates: [  0.050000000000000,  0.050000000000000,  0.450000000000000 ]
    mass: 72.640000
    reduced_to: 126
  - symbol: Ge # 177
    coordinates: [  0.250000000000000,  0.050000000000000,  0.450000000000000 ]
    mass: 72.640000
    reduced_to: 126
  - symbol: Ge # 178
    coordinates: [  0.450000000000000,  0.050000000000000,  0.450000000000000 ]
    mass: 72.640000
    reduced_to: 126
  - symbol: Ge # 179
    coordinates: [  0.650000000000000,  0.050000000000000,  0.450000000000000 ]
    mass: 72.640000
    reduced_to: 126
  - symbol: Ge # 180
    coordinates: [  0.850000000000000,  0.050000000000000,  0.450000000000000 ]
    mass: 72.640000
    reduced_to: 126
  - symbol: Ge # 181
    coordinates: [  0.050000000000000,  0.250000000000000,  0.450000000000000 ]
    mass: 72.640000
    reduced_to: 126
  - symbol: Ge # 182
    coordinates: [  0.250000000000000,  0.250000000000000,  0.450000000000000 ]
    mass: 72.640000
    reduced_to: 126
  - symbol: Ge # 183
    coordinates: [  0.450000000000000,  0.250000000000000,  0.450000000000000 ]
    mass: 72.640000
    reduced_to: 126
  - symbol: Ge # 184
    coordinates: [  0.650000000000000,  0.250000000000000,  0.450000000000000 ]
    mass: 72.640000
    reduced_to: 126
  - symbol: Ge # 185
    coordinates: [  0.850000000000000,  0.250000000000000,  0.450000000000000 ]
    mass: 72.640000
    reduced_to: 126
  - symbol: Ge # 186
    coordinates: [  0.050000000000000,  0.450000000000000,  0.450000000000000 ]
    mass: 72.640000
    reduced_to: 126
  - symbol: Ge # 187
    coordinates: [  0.250000000000000,  0.450000000000000,  0.450000000000000 ]
    mass: 72.640000
    reduced_to: 126
  - symbol: Ge # 188
    coordinates: [  0.450000000000000,  0.450000000000000,  0.450000000000000 ]
    mass: 72.640000
    reduced_to: 126
  - symbol: Ge # 189
    coordinates: [  0.650000000000000,  0.450000000000000,  0.450000000000000 ]
    mass: 72.640000
    reduced_to: 126
  - symbol: Ge # 190
    coordinates: [  0.850000000000000,  0.450000000000000,  0.450000000000000 ]
    mass: 72.640000
    reduced_to: 126
  - symbol: Ge # 191
    coordinates: [  0.050000000000000,  0.650000000000000,  0.450000000000000 ]
    mass: 72.640000
    reduced_to: 126
  - symbol: Ge # 192
    coordinates: [  0.250000000000000,  0.650000000000000,  0.450000000000000 ]
    mass: 72.640000
    reduced_to: 126
  - symbol: Ge # 193
    coordinates: [  0.450000000000000,  0.650000000000000,  0.450000000000000 ]
    mass: 72.640000
    reduced_to: 126
  - symbol: Ge # 194
    coordinates: [  0.650000000000000,  0.650000000000000,  0.450000000000000 ]
    mass: 72.640000
    reduced_to: 126
  - symbol: Ge # 195
    coordinates: [  0.850000000000000,  0.650000000000000,  0.450000000000000 ]
    mass: 72.640000
    reduced_to: 126
  - symbol: Ge # 196
    coordinates: [  0.050000000000000,  0.850000000000000,  0.450000000000000 ]
    mass: 72.640000
    reduced_to: 126
  - symbol: Ge # 197
    coordinates: [  0.250000000000000,  0.850000000000000,  0.450000000000000 ]
    mass: 72.640000
    reduced_to: 126
  - symbol: Ge # 198