   2  432
1 1
    44.271758994404422    -0.000000000000000    -0.000000000000000
    -0.000000000000002    44.271758994404394    -0.000000000000000
    -0.000000000000000    -0.000000000000011    44.271758994404415
1 2
     1.377308775579488    -0.733565037559940    -0.733565037559940
     0.733609408510459    -1.527473065224429    -1.587106827227449
     0.733609408510459    -1.587106827227449    -1.527473065224429
1 3
     0.147764457617943    -0.066556425779184    -0.066556425779184
     0.066555718672402    -0.030264081846436    -0.049393264821181
     0.066555718672402    -0.049393264821181    -0.030264081846436
1 4
     0.049176448204399     0.000000000000000     0.000000000000000
    -0.000000000000000    -0.006645919859677    -0.012866691767166
     0.000000000000000    -0.012866691767166    -0.006645919859677
1 5
     0.147764457617943     0.066556425779184     0.066556425779184
    -0.066555718672402    -0.030264081846436    -0.049393264821181
    -0.066555718672402    -0.049393264821181    -0.030264081846436
1 6
     1.377308775579488     0.733565037559940     0.733565037559941
    -0.733609408510459    -1.527473065224429    -1.587106827227449
    -0.733609408510459    -1.587106827227449    -1.527473065224430
1 7
    -1.527473065224430     0.733609408510460    -1.587106827227450
    -0.733565037559940     1.377308775579487    -0.733565037559940
    -1.587106827227450     0.733609408510459    -1.527473065224430
1 8
    -0.038179081601648     0.029788552536089     0.013331172534058
     0.029788552536089    -0.038179081601648     0.013331172534058
    -0.024012992735704    -0.024012992735704     0.027047718263862
1 9
    -0.004904227469267     0.009476468304767    -0.001755657749339
     0.004514611632833     0.002326646475147    -0.002583503013413
    -0.008570841294762     0.002739420058664     0.002901259123208
1 10
    -0.004904227469267     0.001755657749339    -0.009476468304767
     0.008570841294762     0.002901259123208     0.002739420058664
    -0.004514611632833    -0.002583503013413     0.002326646475147
1 11
    -0.038179081601648    -0.013331172534058    -0.029788552536089
     0.024012992735704     0.027047718263862    -0.024012992735704
    -0.029788552536089     0.013331172534058    -0.038179081601648
1 12
    -1.527473065224431     1.587106827227450    -0.733609408510460
     1.587106827227449    -1.527473065224429     0.733609408510459
     0.733565037559940    -0.733565037559940     1.377308775579487
1 13
    -0.030264081846436     0.066555718672402    -0.049393264821181
    -0.066556425779184     0.147764457617943    -0.066556425779184
    -0.049393264821181     0.066555718672402    -0.030264081846436
1 14
     0.002326646475147     0.004514611632833    -0.002583503013413
     0.009476468304767    -0.004904227469267    -0.001755657749339
     0.002739420058664    -0.008570841294762     0.002901259123208
1 15
    -0.000293626090888     0.003001756674485    -0.003001756674485
     0.003001756674485    -0.000293626090888    -0.003001756674485
    -0.003001756674485    -0.003001756674485    -0.000293626090888
1 16
     0.002326646475147     0.002583503013413    -0.004514611632833
    -0.002739420058664     0.002901259123208    -0.008570841294762
    -0.009476468304767    -0.001755657749339    -0.004904227469267
1 17
    -0.030264081846436     0.049393264821181    -0.066555718672402
     0.049393264821181    -0.030264081846436     0.066555718672402
     0.066556425779184    -0.066556425779184     0.147764457617943
1 18
     0.027044713060042    -0.013328432495280     0.013328432495280
     0.024013699842486    -0.038176164786176    -0.029782100186710
    -0.024013699842486    -0.029782100186710    -0.038176164786176
1 19
    -0.006645919859677    -0.000000000000000    -0.012866691767166
     0.000000000000000     0.049176448204399    -0.000000000000000
    -0.012866691767166    -0.000000000000000    -0.006645919859677
1 20
     0.002901259123208     0.008570841294762     0.002739420058664
     0.001755657749339    -0.004904227469267    -0.009476468304767
    -0.002583503013413    -0.004514611632833     0.002326646475147
1 21
     0.002901259123208    -0.002739420058664    -0.008570841294762
     0.002583503013413     0.002326646475147    -0.004514611632833
    -0.001755657749339    -0.009476468304767    -0.004904227469267
1 22
    -0.006645919859677     0.012866691767166    -0.000000000000000
     0.012866691767166    -0.006645919859677     0.000000000000000
    -0.000000000000000     0.000000000000000     0.049176448204399
1 23
     0.002901435899904     0.002584475285237    -0.001756099691077
    -0.002737829068407     0.002327441970276    -0.009474877314509
    -0.008570576129719    -0.004511694817361    -0.004901664207185
1 24
     0.002901435899904     0.001756099691077    -0.002584475285237
     0.008570576129719    -0.004901664207185    -0.004511694817361
     0.002737829068407    -0.009474877314509     0.002327441970276
1 25
    -0.030264081846436    -0.066555718672402    -0.049393264821181
     0.066556425779184     0.147764457617943     0.066556425779184
    -0.049393264821181    -0.066555718672402    -0.030264081846436
1 26
     0.027047718263862     0.024012992735704    -0.024012992735704
    -0.013331172534058    -0.038179081601648    -0.029788552536089
     0.013331172534058    -0.029788552536089    -0.038179081601648
1 27
    -0.030264081846436     0.049393264821181     0.066555718672402
     0.049393264821181    -0.030264081846436    -0.066555718672402
    -0.066556425779184     0.066556425779184     0.147764457617943
1 28
     0.002327441970276    -0.002737829068407    -0.009474877314509
     0.002584475285237     0.002901435899904    -0.001756099691077
    -0.004511694817361    -0.008570576129719    -0.004901664207185
1 29
    -0.000291858323935     0.003001756674485    -0.003001756674485
     0.003001756674485    -0.000291858323935    -0.003001756674485
    -0.003001756674485    -0.003001756674485    -0.000291858323935
1 30
     0.002327441970276     0.009474877314509     0.002737829068407
     0.004511694817361    -0.004901664207185    -0.008570576129719
    -0.002584475285237    -0.001756099691077     0.002901435899904
1 31
    -1.527473065224430    -0.733609408510460    -1.587106827227450
     0.733565037559940     1.377308775579487     0.733565037559940
    -1.587106827227450    -0.733609408510460    -1.527473065224430
1 32
    -1.527473065224430     1.587106827227450     0.733609408510460
     1.587106827227449    -1.527473065224429    -0.733609408510459
    -0.733565037559941     0.733565037559941     1.377308775579488
1 33
    -0.038176164786176     0.024013699842486    -0.029782100186710
    -0.013328432495280     0.027044713060042     0.013328432495280
    -0.029782100186710    -0.024013699842486    -0.038176164786176
1 34
    -0.004901664207185     0.008570576129719    -0.004511694817361
     0.001756099691077     0.002901435899904    -0.002584475285237
    -0.009474877314509     0.002737829068407     0.002327441970276
1 35
    -0.004901664207185     0.004511694817361    -0.008570576129719
     0.009474877314509     0.002327441970276     0.002737829068407
    -0.001756099691077    -0.002584475285237     0.002901435899904
1 36
    -0.038176164786176     0.029782100186710    -0.024013699842486
     0.029782100186710    -0.038176164786176    -0.024013699842486
     0.013328432495280     0.013328432495280     0.027044713060042
1 37
    -1.527473065224430    -1.587106827227450     0.733609408510460
    -1.587106827227449    -1.527473065224429     0.733609408510459
    -0.733565037559940    -0.733565037559940     1.377308775579487
1 38
    -0.038179081601648     0.013331172534058     0.029788552536089
    -0.024012992735704     0.027047718263862    -0.024012992735704
     0.029788552536089     0.013331172534058    -0.038179081601648
1 39
    -0.004904227469267    -0.001755657749339     0.009476468304767
    -0.008570841294762     0.002901259123208     0.002739420058664
     0.004514611632833    -0.002583503013413     0.002326646475147
1 40
    -0.004904227469267    -0.009476468304767     0.001755657749339
    -0.004514611632833     0.002326646475147    -0.002583503013413
     0.008570841294762     0.002739420058664     0.002901259123208
1 41
    -0.038179081601648    -0.029788552536089    -0.013331172534058
    -0.029788552536089    -0.038179081601648     0.013331172534058
     0.024012992735704    -0.024012992735704     0.027047718263862
1 42
    -1.527473065224430    -0.733609408510460     1.587106827227450
     0.733565037559940     1.377308775579487    -0.733565037559940
     1.587106827227449     0.733609408510459    -1.527473065224430
1 43
     0.027047718263862    -0.024012992735704    -0.024012992735704
     0.013331172534058    -0.038179081601648     0.029788552536089
     0.013331172534058     0.029788552536089    -0.038179081601648
1 44
    -0.006540030619194     0.000069119687861     0.000069119687861
     0.000069119687861    -0.006540030619194     0.000069119687861
     0.000069119687861     0.000069119687861    -0.006540030619194
1 45
    -0.001998283763633    -0.000000000000000    -0.000000000000000
     0.000000000000000    -0.001172559819903    -0.000689429111657
    -0.000000000000000    -0.000689429111657    -0.001172559819903
1 46
    -0.006540030619194    -0.000069119687861    -0.000069119687861
    -0.000069119687861    -0.006540030619194     0.000069119687861
    -0.000069119687861     0.000069119687861    -0.006540030619194
1 47
     0.027047718263862     0.024012992735704     0.024012992735704
    -0.013331172534058    -0.038179081601648     0.029788552536089
    -0.013331172534058     0.029788552536089    -0.038179081601648
1 48
    -0.078855134024361    -0.000000000000000    -0.000000000000000
     0.000000000000000    -0.045223544520871     0.000000883883476
     0.000000000000000     0.000000883883476    -0.045223544520871
1 49
     0.002901259123208    -0.008570841294762     0.002739420058664
    -0.001755657749339    -0.004904227469267     0.009476468304767
    -0.002583503013413     0.004514611632833     0.002326646475147
1 50
    -0.001172559819903    -0.000000000000000    -0.000689429111657
    -0.000000000000000    -0.001998283763633    -0.000000000000000
    -0.000689429111657     0.000000000000000    -0.001172559819903
1 51
    -0.001172559819903     0.000689429111657     0.000000000000000
     0.000689429111657    -0.001172559819903    -0.000000000000000
    -0.000000000000000     0.000000000000000    -0.001998283763633
1 52
     0.002901259123208    -0.002739420058664     0.008570841294762
     0.002583503013413     0.002326646475147     0.004514611632833
     0.001755657749339     0.009476468304767    -0.004904227469267
1 53
    -0.002725189534693    -0.003387129870231     0.005873582477926
    -0.003385185326583    -0.007884063833535    -0.000026958446033
    -0.005873317312883     0.000029963649853    -0.005673913200588
1 54
    -0.002725189534693    -0.005873582477926     0.003387129870231
     0.005873317312883    -0.005673913200588     0.000029963649853
     0.003385185326583    -0.000026958446033    -0.007884063833535
1 55
     0.002326646475147    -0.004514611632833    -0.002583503013413
    -0.009476468304767    -0.004904227469267     0.001755657749339
     0.002739420058664     0.008570841294762     0.002901259123208
1 56
    -0.006540030619194    -0.000069119687861     0.000069119687861
    -0.000069119687861    -0.006540030619194    -0.000069119687861
     0.000069119687861    -0.000069119687861    -0.006540030619194
1 57
     0.002326646475147     0.002583503013413     0.004514611632833
    -0.002739420058664     0.002901259123208     0.008570841294762
     0.009476468304767     0.001755657749339    -0.004904227469267
1 58
    -0.000815647672099    -0.000207624228626     0.000631534743947
    -0.000207624228626    -0.000815647672099     0.000631534743947
    -0.000629059870213    -0.000629059870213    -0.001416158106021
1 59
    -0.001153291160115    -0.000472258941485     0.000472258941485
     0.000593262589416    -0.002060862713768    -0.000711437810221
    -0.000593262589416    -0.000711437810221    -0.002060862713768
1 60
    -0.000815647672099    -0.000631534743947     0.000207624228626
     0.000629059870213    -0.001416158106021    -0.000629059870213
     0.000207624228626     0.000631534743947    -0.000815647672099
1 61
    -0.038179081601648    -0.029788552536089     0.013331172534058
    -0.029788552536089    -0.038179081601648    -0.013331172534058
    -0.024012992735704     0.024012992735704     0.027047718263862
1 62
    -0.038179081601648    -0.013331172534058     0.029788552536089
     0.024012992735704     0.027047718263862     0.024012992735704
     0.029788552536089    -0.013331172534058    -0.038179081601648
1 63
    -0.007884063833535    -0.003385185326583    -0.000026958446033
    -0.003387129870231    -0.002725189534693     0.005873582477926
     0.000029963649853    -0.005873317312883    -0.005673913200588
1 64
    -0.002060862713768     0.000593262589416    -0.000711437810221
    -0.000472258941485    -0.001153291160115     0.000472258941485
    -0.000711437810221    -0.000593262589416    -0.002060862713768
1 65
    -0.002060862713768     0.000711437810221    -0.000593262589416
     0.000711437810221    -0.002060862713768    -0.000593262589416
     0.000472258941485     0.000472258941485    -0.001153291160115
1 66
    -0.007884063833535     0.000026958446033     0.003385185326583
    -0.000029963649853    -0.005673913200588    -0.005873317312883
     0.003387129870231     0.005873582477926    -0.002725189534693
1 67
     1.377308775579488     0.733565037559940    -0.733565037559940
    -0.733609408510459    -1.527473065224429     1.587106827227449
     0.733609408510460     1.587106827227450    -1.527473065224430
1 68
    -0.045223544520871    -0.000000000000000     0.000000883883476
     0.000000000000000    -0.078855134024361     0.000000000000000
     0.000000883883476     0.000000000000000    -0.045223544520871
1 69
    -0.005673913200588     0.005873317312883     0.000029963649853
    -0.005873582477926    -0.002725189534693     0.003387129870231
    -0.000026958446033     0.003385185326583    -0.007884063833535
1 70
    -0.001416158106021     0.000629059870213    -0.000629059870213
    -0.000631534743947    -0.000815647672099     0.000207624228626
     0.000631534743947     0.000207624228626    -0.000815647672099
1 71
    -0.005673913200588    -0.000029963649853    -0.005873317312883
     0.000026958446033    -0.007884063833535     0.003385185326583
     0.005873582477926     0.003387129870231    -0.002725189534693
1 72
    -0.045223544520871    -0.000000883883476    -0.000000000000000
    -0.000000883883476    -0.045223544520871    -0.000000000000000
     0.000000000000000     0.000000000000000    -0.078855134024361
1 73
    -0.030264081846436    -0.049393264821181     0.066555718672402
    -0.049393264821181    -0.030264081846436     0.066555718672402
    -0.066556425779184    -0.066556425779184     0.147764457617943
1 74
     0.002326646475147    -0.002583503013413     0.004514611632833
     0.002739420058664     0.002901259123208    -0.008570841294762
     0.009476468304767    -0.001755657749339    -0.004904227469267
1 75
    -0.000293626090888    -0.003001756674485     0.003001756674485
    -0.003001756674485    -0.000293626090888    -0.003001756674485
     0.003001756674485    -0.003001756674485    -0.000293626090888
1 76
     0.002326646475147    -0.004514611632833     0.002583503013413
    -0.009476468304767    -0.004904227469267    -0.001755657749339
    -0.002739420058664    -0.008570841294762     0.002901259123208
1 77
    -0.030264081846436    -0.066555718672402     0.049393264821181
     0.066556425779184     0.147764457617943    -0.066556425779184
     0.049393264821181     0.066555718672402    -0.030264081846436
1 78
     0.027044713060042     0.013328432495280    -0.013328432495280
    -0.024013699842486    -0.038176164786176    -0.029782100186710
     0.024013699842486    -0.029782100186710    -0.038176164786176
1 79
     0.002901259123208     0.002739420058664    -0.008570841294762
    -0.002583503013413     0.002326646475147     0.004514611632833
    -0.001755657749339     0.009476468304767    -0.004904227469267
1 80
    -0.001172559819903    -0.000689429111657    -0.000000000000000
    -0.000689429111657    -0.001172559819903    -0.000000000000000
     0.000000000000000     0.000000000000000    -0.001998283763633
1 81
    -0.001172559819903     0.000000000000000     0.000689429111657
     0.000000000000000    -0.001998283763633    -0.000000000000000
     0.000689429111657     0.000000000000000    -0.001172559819903
1 82
     0.002901259123208     0.008570841294762    -0.002739420058664
     0.001755657749339    -0.004904227469267     0.009476468304767
     0.002583503013413     0.004514611632833     0.002326646475147
1 83
    -0.002725189534693     0.005873582477926    -0.003387129870231
    -0.005873317312883    -0.005673913200588     0.000029963649853
    -0.003385185326583    -0.000026958446033    -0.007884063833535
1 84
    -0.002725189534693     0.003387129870231    -0.005873582477926
     0.003385185326583    -0.007884063833535    -0.000026958446033
     0.005873317312883     0.000029963649853    -0.005673913200588
1 85
    -0.000293626090888    -0.003001756674485    -0.003001756674485
    -0.003001756674485    -0.000293626090888     0.003001756674485
    -0.003001756674485     0.003001756674485    -0.000293626090888
1 86
    -0.001998283763633    -0.000000000000000    -0.000000000000000
     0.000000000000000    -0.001172559819903     0.000689429111657
    -0.000000000000000     0.000689429111657    -0.001172559819903
1 87
    -0.000293626090888     0.003001756674485     0.003001756674485
     0.003001756674485    -0.000293626090888     0.003001756674485
     0.003001756674485     0.003001756674485    -0.000293626090888
1 88
    -0.001154528596982     0.000593704531154     0.000593704531154
    -0.000470667951227    -0.002060951102116     0.000714177848998
    -0.000470667951227     0.000714177848998    -0.002060951102116
1 89
    -0.001660286722226    -0.000000000000000    -0.000000000000000
     0.000000000000000    -0.003007325140386     0.000000707106781
    -0.000000000000000     0.000000707106781    -0.003007325140386
1 90
    -0.001154528596982    -0.000593704531154    -0.000593704531154
     0.000470667951227    -0.002060951102116     0.000714177848998
     0.000470667951227     0.000714177848998    -0.002060951102116
1 91
    -0.004904227469267    -0.009476468304767    -0.001755657749339
    -0.004514611632833     0.002326646475147     0.002583503013413
    -0.008570841294762    -0.002739420058664     0.002901259123208
1 92
    -0.004904227469267     0.001755657749339     0.009476468304767
     0.008570841294762     0.002901259123208    -0.002739420058664
     0.004514611632833     0.002583503013413     0.002326646475147
1 93
    -0.002060951102116    -0.000470667951227     0.000714177848998
     0.000593704531154    -0.001154528596982     0.000593704531154
     0.000714177848998    -0.000470667951227    -0.002060951102116
1 94
    -0.001499419929506    -0.000012727922061     0.000061429901616
    -0.000012727922061    -0.001499419929506     0.000061429901616
    -0.000059927299706    -0.000059927299706    -0.001799409981424
1 95
    -0.001499419929506    -0.000061429901616     0.000012727922061
     0.000059927299706    -0.001799409981424    -0.000059927299706
     0.000012727922061     0.000061429901616    -0.001499419929506
1 96
    -0.002060951102116    -0.000714177848998     0.000470667951227
    -0.000714177848998    -0.002060951102116    -0.000470667951227
    -0.000593704531154     0.000593704531154    -0.001154528596982
1 97
     0.147764457617943     0.066556425779184    -0.066556425779184
    -0.066555718672402    -0.030264081846436     0.049393264821181
     0.066555718672402     0.049393264821181    -0.030264081846436
1 98
    -0.005673913200588    -0.005873317312883     0.000029963649853
     0.005873582477926    -0.002725189534693    -0.003387129870231
    -0.000026958446033    -0.003385185326583    -0.007884063833535
1 99
    -0.003007325140386    -0.000000000000000     0.000000707106781
     0.000000000000000    -0.001660286722226    -0.000000000000000
     0.000000707106781     0.000000000000000    -0.003007325140386
1 100
    -0.001799409981424     0.000059927299706    -0.000059927299706
    -0.000061429901616    -0.001499419929506     0.000012727922061
     0.000061429901616     0.000012727922061    -0.001499419929506
1 101
    -0.003007325140386    -0.000000707106781    -0.000000000000000
    -0.000000707106781    -0.003007325140386     0.000000000000000
     0.000000000000000     0.000000000000000    -0.001660286722226
1 102
    -0.005673913200588    -0.000029963649853     0.005873317312883
     0.000026958446033    -0.007884063833535    -0.003385185326583
    -0.005873582477926    -0.003387129870231    -0.002725189534693
1 103
    -0.038176164786176    -0.024013699842486    -0.029782100186710
     0.013328432495280     0.027044713060042    -0.013328432495280
    -0.029782100186710     0.024013699842486    -0.038176164786176
1 104
    -0.007884063833535     0.003385185326583    -0.000026958446033
     0.003387129870231    -0.002725189534693    -0.005873582477926
     0.000029963649853     0.005873317312883    -0.005673913200588
1 105
    -0.002060951102116     0.000470667951227     0.000714177848998
    -0.000593704531154    -0.001154528596982    -0.000593704531154
     0.000714177848998     0.000470667951227    -0.002060951102116
1 106
    -0.002060951102116    -0.000714177848998    -0.000470667951227
    -0.000714177848998    -0.002060951102116     0.000470667951227
     0.000593704531154    -0.000593704531154    -0.001154528596982
1 107
    -0.007884063833535     0.000026958446033    -0.003385185326583
    -0.000029963649853    -0.005673913200588     0.005873317312883
    -0.003387129870231    -0.005873582477926    -0.002725189534693
1 108
    -0.038176164786176     0.029782100186710     0.024013699842486
     0.029782100186710    -0.038176164786176     0.024013699842486
    -0.013328432495280    -0.013328432495280     0.027044713060042
1 109
    -0.006645919859677    -0.012866691767166    -0.000000000000000
    -0.012866691767166    -0.006645919859677     0.000000000000000
     0.000000000000000     0.000000000000000     0.049176448204399
1 110
     0.002901259123208     0.002739420058664     0.008570841294762
    -0.002583503013413     0.002326646475147    -0.004514611632833
     0.001755657749339    -0.009476468304767    -0.004904227469267
1 111
     0.002901259123208    -0.008570841294762    -0.002739420058664
    -0.001755657749339    -0.004904227469267    -0.009476468304767
     0.002583503013413    -0.004514611632833     0.002326646475147
1 112
    -0.006645919859677    -0.000000000000000     0.012866691767166
     0.000000000000000     0.049176448204399    -0.000000000000000
     0.012866691767166    -0.000000000000000    -0.006645919859677
1 113
     0.002901435899904    -0.001756099691077     0.002584475285237
    -0.008570576129719    -0.004901664207185    -0.004511694817361
    -0.002737829068407    -0.009474877314509     0.002327441970276
1 114
     0.002901435899904    -0.002584475285237     0.001756099691077
     0.002737829068407     0.002327441970276    -0.009474877314509
     0.008570576129719    -0.004511694817361    -0.004901664207185
1 115
     0.002326646475147    -0.002583503013413    -0.004514611632833
     0.002739420058664     0.002901259123208     0.008570841294762
    -0.009476468304767     0.001755657749339    -0.004904227469267
1 116
    -0.006540030619194     0.000069119687861    -0.000069119687861
     0.000069119687861    -0.006540030619194    -0.000069119687861
    -0.000069119687861    -0.000069119687861    -0.006540030619194
1 117
     0.002326646475147     0.004514611632833     0.002583503013413
     0.009476468304767    -0.004904227469267     0.001755657749339
    -0.002739420058664     0.008570841294762     0.002901259123208
1 118
    -0.000815647672099     0.000631534743947    -0.000207624228626
    -0.000629059870213    -0.001416158106021    -0.000629059870213
    -0.000207624228626     0.000631534743947    -0.000815647672099
1 119
    -0.001153291160115     0.000472258941485    -0.000472258941485
    -0.000593262589416    -0.002060862713768    -0.000711437810221
     0.000593262589416    -0.000711437810221    -0.002060862713768
1 120
    -0.000815647672099     0.000207624228626    -0.000631534743947
     0.000207624228626    -0.000815647672099     0.000631534743947
     0.000629059870213    -0.000629059870213    -0.001416158106021
1 121
    -0.004904227469267    -0.001755657749339    -0.009476468304767
    -0.008570841294762     0.002901259123208    -0.002739420058664
    -0.004514611632833     0.002583503013413     0.002326646475147
1 122
    -0.004904227469267     0.009476468304767     0.001755657749339
     0.004514611632833     0.002326646475147     0.002583503013413
     0.008570841294762    -0.002739420058664     0.002901259123208
1 123
    -0.002060951102116     0.000714177848998    -0.000470667951227
     0.000714177848998    -0.002060951102116    -0.000470667951227
     0.000593704531154     0.000593704531154    -0.001154528596982
1 124
    -0.001499419929506     0.000061429901616    -0.000012727922061
    -0.000059927299706    -0.001799409981424    -0.000059927299706
    -0.000012727922061     0.000061429901616    -0.001499419929506
1 125
    -0.001499419929506     0.000012727922061    -0.000061429901616
     0.000012727922061    -0.001499419929506     0.000061429901616
     0.000059927299706    -0.000059927299706    -0.001799409981424
1 126
    -0.002060951102116     0.000470667951227    -0.000714177848998
    -0.000593704531154    -0.001154528596982     0.000593704531154
    -0.000714177848998    -0.000470667951227    -0.002060951102116
1 127
     0.049176448204399    -0.000000000000000     0.000000000000000
    -0.000000000000000    -0.006645919859677     0.012866691767166
     0.000000000000000     0.012866691767166    -0.006645919859677
1 128
    -0.001416158106021    -0.000629059870213    -0.000629059870213
     0.000631534743947    -0.000815647672099    -0.000207624228626
     0.000631534743947    -0.000207624228626    -0.000815647672099
1 129
    -0.001799409981424    -0.000059927299706    -0.000059927299706
     0.000061429901616    -0.001499419929506    -0.000012727922061
     0.000061429901616    -0.000012727922061    -0.001499419929506
1 130
    -0.001499773482897    -0.000000000000000     0.000000000000000
     0.000000000000000    -0.001499773482897    -0.000000000000000
    -0.000000000000000     0.000000000000000    -0.001499773482897
1 131
    -0.001799409981424     0.000059927299706     0.000059927299706
    -0.000061429901616    -0.001499419929506    -0.000012727922061
    -0.000061429901616    -0.000012727922061    -0.001499419929506
1 132
    -0.001416158106021     0.000629059870213     0.000629059870213
    -0.000631534743947    -0.000815647672099    -0.000207624228626
    -0.000631534743947    -0.000207624228626    -0.000815647672099
1 133
    -0.004901664207185    -0.008570576129719    -0.004511694817361
    -0.001756099691077     0.002901435899904     0.002584475285237
    -0.009474877314509    -0.002737829068407     0.002327441970276
1 134
    -0.002060862713768    -0.000593262589416    -0.000711437810221
     0.000472258941485    -0.001153291160115    -0.000472258941485
    -0.000711437810221     0.000593262589416    -0.002060862713768
1 135
    -0.001499419929506     0.000012727922061     0.000061429901616
     0.000012727922061    -0.001499419929506    -0.000061429901616
    -0.000059927299706     0.000059927299706    -0.001799409981424
1 136
    -0.001499419929506    -0.000061429901616    -0.000012727922061
     0.000059927299706    -0.001799409981424     0.000059927299706
    -0.000012727922061    -0.000061429901616    -0.001499419929506
1 137
    -0.002060862713768     0.000711437810221     0.000593262589416
     0.000711437810221    -0.002060862713768     0.000593262589416
    -0.000472258941485    -0.000472258941485    -0.001153291160115
1 138
    -0.004901664207185     0.004511694817361     0.008570576129719
     0.009474877314509     0.002327441970276    -0.002737829068407
     0.001756099691077     0.002584475285237     0.002901435899904
1 139
     0.002327441970276     0.002737829068407    -0.009474877314509
    -0.002584475285237     0.002901435899904     0.001756099691077
    -0.004511694817361     0.008570576129719    -0.004901664207185
1 140
    -0.000815647672099     0.000207624228626     0.000631534743947
     0.000207624228626    -0.000815647672099    -0.000631534743947
    -0.000629059870213     0.000629059870213    -0.001416158106021
1 141
    -0.001154528596982    -0.000593704531154     0.000593704531154
     0.000470667951227    -0.002060951102116    -0.000714177848998
    -0.000470667951227    -0.000714177848998    -0.002060951102116
1 142
    -0.000815647672099    -0.000631534743947    -0.000207624228626
     0.000629059870213    -0.001416158106021     0.000629059870213
    -0.000207624228626    -0.000631534743947    -0.000815647672099
1 143
     0.002327441970276     0.009474877314509    -0.002737829068407
     0.004511694817361    -0.004901664207185     0.008570576129719
     0.002584475285237     0.001756099691077     0.002901435899904
1 144
    -0.006538262852241     0.000067175144213    -0.000067175144213
     0.000067175144213    -0.006538262852241    -0.000067175144213
    -0.000067175144213    -0.000067175144213    -0.006538262852241
1 145
    -0.030264081846436    -0.049393264821181    -0.066555718672402
    -0.049393264821181    -0.030264081846436    -0.066555718672402
     0.066556425779184     0.066556425779184     0.147764457617943
1 146
     0.027047718263862    -0.024012992735704     0.024012992735704