432  
1    

1    
  0.0000000000000000   0.0070710678118655   0.0070710678118655
   0.0048569100   -0.3130486400   -0.3130485800
  -0.0103865600    0.0222812500    0.0222812600
  -0.0009404700    0.0005686000    0.0005686100
   0.0000003700    0.0001379200    0.0001379300
   0.0009417900    0.0005577500    0.0005577600
   0.0103608200    0.0217669900    0.0217670000
   0.0164693300   -0.0149286700    0.0160063500
  -0.0000422800    0.0004419700   -0.0002884000
   0.0000292700   -0.0000360800   -0.0000023100
  -0.0000281000   -0.0000021900   -0.0000355600
   0.0000394300   -0.0002826400    0.0004376100
  -0.0163494300    0.0159686100   -0.0149253300
   0.0008221400   -0.0015142300    0.0006866300
  -0.0000864400    0.0000959300   -0.0000083600
   0.0000003100    0.0000233000    0.0000233000
   0.0000863400   -0.0000078500    0.0000946500
  -0.0008177100    0.0006826900   -0.0015168200
  -0.0000012600    0.0004819200    0.0004791800
   0.0000914000   -0.0003474400    0.0000470500
   0.0000060200    0.0000670000    0.0000505400
  -0.0000056900    0.0000505800    0.0000662100
  -0.0000906100    0.0000469900   -0.0003480200
   0.0000801000    0.0000155200    0.0001015300
  -0.0000798500    0.0001017800    0.0000153500
  -0.0001213500   -0.0005716900   -0.0002572600
   0.0000029900    0.0004822600    0.0004789700
   0.0001212900   -0.0002558900   -0.0005766600
   0.0000139300    0.0000398700    0.0000467200
   0.0000001700    0.0000233000    0.0000232600
  -0.0000133100    0.0000474100    0.0000402900
   0.0060410300   -0.0045209400    0.0056080600
  -0.0060289100    0.0056190300   -0.0045812300
   0.0003083600   -0.0000257500    0.0001728900
   0.0000548900   -0.0000399600    0.0000018900
  -0.0000542500    0.0000017400   -0.0000397800
  -0.0003012600    0.0001784600   -0.0000170900
   0.0164693300    0.0160063400   -0.0149286600
  -0.0000422800   -0.0002884200    0.0004419900
   0.0000292700   -0.0000023200   -0.0000360700
  -0.0000281000   -0.0000355600   -0.0000021700
   0.0000394300    0.0004375900   -0.0002826300
  -0.0163494400   -0.0149253500    0.0159686200
  -0.0001889900    0.0000591400    0.0000591500
  -0.0000006100    0.0000461000    0.0000461200
   0.0000004300    0.0000131600    0.0000131700
   0.0000013600    0.0000454000    0.0000454200
   0.0001880700    0.0000594900    0.0000595000
  -0.0000007700    0.0003197900    0.0003198200
   0.0000308700    0.0000028200   -0.0000836700
   0.0000050900    0.0000141900    0.0000082500
  -0.0000046600    0.0000083400    0.0000140700
  -0.0000304900   -0.0000832600    0.0000026900
   0.0000656800    0.0000557100    0.0000401000
  -0.0000652700    0.0000405400    0.0000553600
   0.0000478200   -0.0000260500   -0.0000331100
   0.0000001600    0.0000469200    0.0000465500
  -0.0000474500   -0.0000327500   -0.0000257900
   0.0000061300    0.0000102300    0.0000054500
   0.0000002000    0.0000196800    0.0000195100
  -0.0000057000    0.0000056500    0.0000101900
   0.0003802200    0.0000993600   -0.0000972200
  -0.0003805800   -0.0000967500    0.0001009200
   0.0000240800    0.0000607000   -0.0000019300
   0.0000085700    0.0000123700    0.0000111300
  -0.0000081500    0.0000113200    0.0000123300
  -0.0000233700   -0.0000008900    0.0000609000
   0.0000291300   -0.0004424400   -0.0004009300
  -0.0000030900    0.0005590100    0.0003180200
   0.0000418700   -0.0000045100    0.0000314400
   0.0000001600    0.0000043600    0.0000042400
  -0.0000415700    0.0000321600   -0.0000048200
  -0.0000030100    0.0003215300    0.0005561600
   0.0008221600    0.0006866300   -0.0015142200
  -0.0000864300   -0.0000083600    0.0000959400
   0.0000003100    0.0000232900    0.0000233100
   0.0000863300    0.0000946300   -0.0000078300
  -0.0008177100   -0.0015168400    0.0006827100
  -0.0000012500    0.0004791800    0.0004819400
   0.0000308700   -0.0000836700    0.0000028200
   0.0000050900    0.0000082300    0.0000142100
  -0.0000046600    0.0000140500    0.0000083500
  -0.0000305000    0.0000026600   -0.0000832400
   0.0000656800    0.0000400800    0.0000557300
  -0.0000652600    0.0000553600    0.0000405400
   0.0000426900   -0.0000192200   -0.0000192100
   0.0000002900    0.0000034100    0.0000034200
  -0.0000422200   -0.0000190900   -0.0000190700
   0.0000068800    0.0000095100    0.0000095400
   0.0000002100    0.0000212600    0.0000212600
  -0.0000064300    0.0000095200    0.0000095200
   0.0000927300    0.0000027500   -0.0000389200
  -0.0000923200   -0.0000386500    0.0000030900
  -0.0000090500    0.0000114900    0.0000103400
   0.0000007000    0.0000110300    0.0000122600
  -0.0000003100    0.0000123200    0.0000110200
   0.0000094600    0.0000104100    0.0000114900
   0.0000032200   -0.0001337900   -0.0001367400
  -0.0000417400    0.0000430200    0.0000798800
   0.0000001400    0.0000117400    0.0000211800
   0.0000001800    0.0000105300    0.0000105000
   0.0000001500    0.0000213500    0.0000117400
   0.0000409600    0.0000795200    0.0000433900
   0.0001150200   -0.0003630400    0.0003645300
  -0.0000243000   -0.0000221400    0.0000814400
  -0.0000006900    0.0000048900    0.0000187100
   0.0000010000    0.0000188300    0.0000047800
   0.0000240000    0.0000818600   -0.0000223800
  -0.0001176900    0.0003638700   -0.0003590600
   0.0000914000    0.0000470300   -0.0003474200
   0.0000060200    0.0000505200    0.0000670000
  -0.0000056900    0.0000661900    0.0000505800
  -0.0000906200   -0.0003480400    0.0000470000
   0.0000800900    0.0001015400    0.0000155500
  -0.0000798300    0.0000153500    0.0001018000
   0.0000478100   -0.0000331200   -0.0000260400
   0.0000001600    0.0000465200    0.0000469300
  -0.0000474600   -0.0000258100   -0.0000327400
   0.0000061300    0.0000054400    0.0000102600
   0.0000002100    0.0000195200    0.0000197000
  -0.0000057200    0.0000101800    0.0000056500
   0.0000927300   -0.0000389300    0.0000027500
  -0.0000923200    0.0000030700   -0.0000386300
  -0.0000090400    0.0000103300    0.0000115200
   0.0000007100    0.0000122600    0.0000110400
  -0.0000003300    0.0000110100    0.0000123200
   0.0000094500    0.0000114700    0.0000104300
   0.0000013400   -0.0000439900   -0.0000439800
  -0.0000088700    0.0000072000    0.0000072200
  -0.0000007000    0.0000106800    0.0000106800
   0.0000001900    0.0000106000    0.0000106100
   0.0000010400    0.0000107000    0.0000107200
   0.0000089900    0.0000072500    0.0000072600
   0.0000794700   -0.0000014400   -0.0000348600
   0.0000017900    0.0000039300    0.0000178900
   0.0000005100    0.0000101800    0.0000131300
  -0.0000001600    0.0000131900    0.0000101700
  -0.0000016100    0.0000179400    0.0000039900
  -0.0000793700   -0.0000346000   -0.0000008700
   0.0000504700   -0.0000811500    0.0000220100
   0.0000030900    0.0000013100    0.0000143400
   0.0000001400    0.0000196700    0.0000195700
  -0.0000028700    0.0000146200    0.0000013200
  -0.0000499000    0.0000224900   -0.0000811000
  -0.0000002100    0.0000465600    0.0000468700
  -0.0001213600   -0.0002572800   -0.0005716900
   0.0000029900    0.0004789500    0.0004822700
   0.0001213000   -0.0005766700   -0.0002558900
   0.0000139500    0.0000467300    0.0000398900
   0.0000001800    0.0000232500    0.0000233400
  -0.0000133300    0.0000402700    0.0000474200
   0.0003802300   -0.0000972500    0.0000993800
  -0.0003805700    0.0001009200   -0.0000967400
   0.0000241000   -0.0000019400    0.0000607200
   0.0000085800    0.0000111400    0.0000124000
  -0.0000081700    0.0000123000    0.0000113300
  -0.0000233800    0.0000608700   -0.0000008800
   0.0000032200   -0.0001367600   -0.0001337800
  -0.0000417300    0.0000798700    0.0000430300
   0.0000001400    0.0000211700    0.0000117600
   0.0000001800    0.0000104800    0.0000105500
   0.0000001500    0.0000117200    0.0000213600
   0.0000409600    0.0000433800    0.0000795400
   0.0000794600   -0.0000348800   -0.0000014200
   0.0000017800    0.0000178800    0.0000039400
   0.0000005000    0.0000131200    0.0000101900
  -0.0000001600    0.0000101600    0.0000131900
  -0.0000016000    0.0000039800    0.0000179500
  -0.0000793700   -0.0000008900   -0.0000345900
   0.0000426700   -0.0000192400   -0.0000192000
   0.0000086300    0.0000095100    0.0000095200
   0.0000002500    0.0000212700    0.0000212700
  -0.0000081500    0.0000095700    0.0000095700
  -0.0000422400   -0.0000191100   -0.0000190900
   0.0000001200    0.0000033800    0.0000034000
   0.0000414900   -0.0000483800   -0.0000324400
   0.0000177400    0.0000561300    0.0000395600
  -0.0000174500    0.0000402900    0.0000557800
  -0.0000410000   -0.0000322300   -0.0000483500
  -0.0000047400    0.0000141000    0.0000082700
   0.0000050300    0.0000082800    0.0000141300
   0.0060410100    0.0056080400   -0.0045209200
  -0.0060289200   -0.0045812500    0.0056190400
   0.0003083600    0.0001728700   -0.0000257400
   0.0000548900    0.0000018700   -0.0000399300
  -0.0000542600   -0.0000398000    0.0000017700
  -0.0003012800   -0.0000171000    0.0001784800
   0.0000291300   -0.0004009400   -0.0004424300
  -0.0000030900    0.0003180000    0.0005590300
   0.0000418600    0.0000314200   -0.0000044900
   0.0000001600    0.0000042300    0.0000043800
  -0.0000415800   -0.0000048400    0.0000321500
  -0.0000030200    0.0005561600    0.0003215600
   0.0001150100    0.0003645100   -0.0003630300
  -0.0000243200    0.0000814200   -0.0000221200
  -0.0000007000    0.0000186900    0.0000049200
   0.0000010100    0.0000047500    0.0000188500
   0.0000240200   -0.0000223900    0.0000818900
  -0.0001176900   -0.0003590700    0.0003638800
   0.0000504500    0.0000219900   -0.0000811200
   0.0000030900    0.0000143200    0.0000013500
   0.0000001300    0.0000195500    0.0000197000
  -0.0000028600    0.0000013000    0.0000146400
  -0.0000499000   -0.0000811200    0.0000224900
  -0.0000002100    0.0000468500    0.0000465600
   0.0000414800   -0.0000324500   -0.0000483400
   0.0000177300    0.0000395500    0.0000561600
  -0.0000174600    0.0000557700    0.0000403000
  -0.0000410000   -0.0000483600   -0.0000322300
  -0.0000047300    0.0000082500    0.0000141000
   0.0000050300    0.0000141000    0.0000083100
   0.0003413300    0.0000603400    0.0000603700
  -0.0000000900    0.0003197500    0.0003197600
  -0.0003378300    0.0000583500    0.0000583700
   0.0000012800    0.0000455000    0.0000455000
   0.0000002100    0.0000131500    0.0000131700
  -0.0000006100    0.0000459900    0.0000460300
   0.0000704400   -0.0000525600   -0.0000525600
  -0.0000050800   -0.0000056700   -0.0000056900
   0.0000042200   -0.0000057500   -0.0000057700
  -0.0000706700   -0.0000519500   -0.0000519700
   0.0011957400   -0.0011179500   -0.0011179600
  -0.0011739200   -0.0011137200   -0.0011137300
   0.0000029500   -0.0000304700   -0.0000136100
  -0.0000002500   -0.0000076700   -0.0000076100
  -0.0000034000   -0.0000134800   -0.0000301500
   0.0001806000    0.0001040000   -0.0001277200
  -0.0000004600   -0.0001187200   -0.0001179300
  -0.0001806900   -0.0001287400    0.0001050700
   0.0000076300   -0.0000256900   -0.0000089000
  -0.0000080300   -0.0000088900   -0.0000256300
   0.0000516500    0.0000253800    0.0000025100
   0.0000226400   -0.0000046700   -0.0000115500
  -0.0000231300   -0.0000117600   -0.0000045200
  -0.0000521800    0.0000024100    0.0000254700
  -0.0000000400   -0.0001226200   -0.0001229900
   0.0000393400    0.0000741300    0.0000125500
   0.0000095000    0.0000002900    0.0000017700
  -0.0000001600   -0.0000097300   -0.0000096200
  -0.0000096600    0.0000015100    0.0000004700
  -0.0000399700    0.0000129000    0.0000738900
   0.0003831600    0.0001491200   -0.0003168000
  -0.0000536500    0.0000281100   -0.0000636800
  -0.0000134300   -0.0000226400   -0.0000139800
   0.0000131500   -0.0000143600   -0.0000223600
   0.0000538200   -0.0000654600    0.0000285800
  -0.0003872300   -0.0003151000    0.0001570300
  -0.0007950800   -0.0010145000   -0.0015073100
  -0.0001423800   -0.0001062800    0.0000653500
  -0.0000006800   -0.0000265500   -0.0000264600
   0.0001395000    0.0000644100   -0.0001069000
   0.0008041700   -0.0014949500   -0.0010480100
  -0.0003504000    0.0494762400    0.0496213400
   0.0000029500   -0.0000135900   -0.0000304900
  -0.0000002600   -0.0000076000   -0.0000076900
  -0.0000034200   -0.0000301400   -0.0000135000
   0.0001805800   -0.0001277100    0.0001039900
  -0.0000004600   -0.0001179100   -0.0001187200
  -0.0001806900    0.0001051000   -0.0001287600
  -0.0000018000   -0.0000060400   -0.0000060600
   0.0000014000   -0.0000060200   -0.0000060300
   0.0000042900    0.0000519200    0.0000519300
   0.0000084100   -0.0000549600   -0.0000549600
  -0.0000086300   -0.0000548400   -0.0000548700
  -0.0000046200    0.0000520700    0.0000520500
  -0.0000002100   -0.0000167400   -0.0000167100
   0.0000328000    0.0000186900    0.0000232800
   0.0000077400   -0.0000009800   -0.0000105900
  -0.0000001700   -0.0000199200   -0.0000198900
  -0.0000081000   -0.0000105700   -0.0000009100
  -0.0000333300    0.0000235000    0.0000187700
   0.0001832700   -0.0000702500    0.0001018200
  -0.0000086200    0.0000193000   -0.0000379500
  -0.0000030300   -0.0000057600   -0.0000169900
   0.0000027300   -0.0000170700   -0.0000057200
   0.0000082500   -0.0000379400    0.0000191200
  -0.0001834000    0.0001018500   -0.0000691300
   0.0000594700   -0.0000841000   -0.0001761700
  -0.0000170800    0.0000108600   -0.0000462900
  -0.0000001700   -0.0000089100   -0.0000088300
   0.0000168200   -0.0000466500    0.0000105300
  -0.0000573900   -0.0001772800   -0.0000836200
  -0.0000037200   -0.0001714100   -0.0001856700
   0.0000026400   -0.0002505800   -0.0003135200
   0.0000283600    0.0000144400    0.0000189700
  -0.0000288500    0.0000188800    0.0000140900
  -0.0000027600   -0.0003096800   -0.0002500800
  -0.0025568500    0.0042226900    0.0023822700
   0.0025826600    0.0024001100    0.0042093000
   0.0000076300   -0.0000088900   -0.0000257100
  -0.0000080300   -0.0000256200   -0.0000089100
   0.0000516500    0.0000025100    0.0000253600
   0.0000226400   -0.0000115100   -0.0000046600
  -0.0000231300   -0.0000044900   -0.0000117800
  -0.0000521900    0.0000254800    0.0000023700
  -0.0000002000   -0.0000167100   -0.0000167600
   0.0000328000    0.0000232800    0.0000186800
   0.0000077600   -0.0000105800   -0.0000009700
  -0.0000001700   -0.0000198600   -0.0000199400
  -0.0000081100   -0.0000009000   -0.0000105900
  -0.0000333200    0.0000187900    0.0000234900
   0.0000666600    0.0000103400    0.0000103300
   0.0000075500   -0.0000007500   -0.0000007700
   0.0000002200   -0.0000111000   -0.0000111300
  -0.0000005400   -0.0000111000   -0.0000111200
  -0.0000079500   -0.0000007500   -0.0000007600
  -0.0000671500    0.0000105500    0.0000105300
   0.0000229100   -0.0000129800   -0.0000044700
  -0.0000034800   -0.0000052600   -0.0000165400
  -0.0000001700   -0.0000114900   -0.0000114900
   0.0000031700   -0.0000165800   -0.0000053100
  -0.0000228200   -0.0000046600   -0.0000128200
  -0.0000015900    0.0000434800    0.0000422400
  -0.0000000400   -0.0000358600   -0.0000344200
  -0.0000003500   -0.0000087000   -0.0000182800
   0.0000000100   -0.0000184000   -0.0000086900
  -0.0000000000   -0.0000345900   -0.0000357000
   0.0001475300   -0.0000022800    0.0000061800
  -0.0001471500    0.0000067400   -0.0000009100
   0.0000147900   -0.0000414500   -0.0000648800
  -0.0000002700   -0.0000096500   -0.0000097100
  -0.0000151800   -0.0000640300   -0.0000415200
  -0.0002185200    0.0006319600    0.0002609000
   0.0000001200   -0.0001487400   -0.0001491300
   0.0002191300    0.0002624600    0.0006314300
  -0.0000000500   -0.0001229800   -0.0001226400
   0.0000393400    0.0000125700    0.0000741100
   0.0000095300    0.0000018100    0.0000002900
  -0.0000001700   -0.0000095900   -0.0000097400
  -0.0000096900    0.0000004700    0.0000014700
  -0.0000399800    0.0000739100    0.0000128800
   0.0001832800    0.0001018300   -0.0000702600
  -0.0000086000   -0.0000379300    0.0000192900
  -0.0000030300   -0.0000169800   -0.0000057700
   0.0000027100   -0.0000057100   -0.0000170900
   0.0000082400    0.0000191300   -0.0000379400
  -0.0001834000   -0.0000691300    0.0001018400
   0.0000229100   -0.0000044500   -0.0000130000
  -0.0000035000   -0.0000165200   -0.0000052800
  -0.0000001600   -0.0000114700   -0.0000115200
   0.0000031700   -0.0000053000   -0.0000166000
  -0.0000228300   -0.0000128100   -0.0000046700
  -0.0000016000    0.0000422500    0.0000434800
  -0.0000019000   -0.0000078500   -0.0000078600
  -0.0000006200   -0.0000136600   -0.0000136700
   0.0000003000   -0.0000137100   -0.0000137200
   0.0000016700   -0.0000079200   -0.0000079300
   0.0000534300    0.0000217300    0.0000217300
  -0.0000538100    0.0000219600    0.0000219500
   0.0000130900   -0.0000142300   -0.0000210400
  -0.0000002300   -0.0000296300   -0.0000294000
  -0.0000134600   -0.0000213900   -0.0000140900
   0.0000605500    0.0000291800    0.0000147400
  -0.0000001300    0.0000003100    0.0000003000
  -0.0000608300    0.0000148000    0.0000296100
   0.0001437100    0.0000630300   -0.0001711100
  -0.0001437200   -0.0001701500    0.0000613600
   0.0001029400    0.0003101200   -0.0000604700
   0.0000069000   -0.0000241300   -0.0000389500
  -0.0000072600   -0.0000387500   -0.0000242900
  -0.0001043300   -0.0000611000    0.0003082800
   0.0003831700   -0.0003167700    0.0001491000
  -0.0000536400   -0.0000636700    0.0000280900
  -0.0000134400   -0.0000139700   -0.0000226500
   0.0000131400   -0.0000223500   -0.0000143900
   0.0000538100    0.0000286000   -0.0000654800
  -0.0003872300    0.0001570600   -0.0003151300
   0.0000594800   -0.0001761500   -0.0000841100
  -0.0000170900   -0.0000462900    0.0000108400
  -0.0000001700   -0.0000088200   -0.0000089100
   0.0000168300    0.0000105300   -0.0000466700
  -0.0000573800   -0.0000836100   -0.0001772900
  -0.0000037200   -0.0001856500   -0.0001714300
  -0.0000000500   -0.0000344000   -0.0000358800
  -0.0000003500   -0.0000182600   -0.0000087000
   0.0000000200   -0.0000086800   -0.0000184200
   0.0000000100   -0.0000356900   -0.0000346100
   0.0001475400    0.0000062000   -0.0000023100
  -0.0001471700   -0.0000008900    0.0000067300
   0.0000131000   -0.0000210200   -0.0000142300
  -0.0000002200   -0.0000293800   -0.0000296500
  -0.0000134500   -0.0000140700   -0.0000214100
   0.0000605700    0.0000147500    0.0000291500
  -0.0000001300    0.0000003000    0.0000002900
  -0.0000608300    0.0000296300    0.0000148000
   0.0001113200   -0.0001228900   -0.0001229200
  -0.0001130600   -0.0001230700   -0.0001231000
   0.0000657200    0.0000796100    0.0000795700
   0.0000021700   -0.0000019800   -0.0000020000
  -0.0000025800   -0.0000021500   -0.0000021500
  -0.0000669800    0.0000791500    0.0000791500
   0.0000225300   -0.0006843400   -0.0007177200
   0.0011744900    0.0004797300   -0.0013518000
  -0.0000807900   -0.0000667100   -0.0000601100
  -0.0000000800   -0.0000458900   -0.0000459400
   0.0000811100   -0.0000596900   -0.0000691500
  -0.0011827500   -0.0013624200    0.0004556900
  -0.0007950700   -0.0015073000   -0.0010145000
  -0.0001423700    0.0000653700   -0.0001063000
  -0.0000006900   -0.0000264300   -0.0000265600
   0.0001394900   -0.0001068900    0.0000643800
   0.0008041700   -0.0010479900   -0.0014949700
  -0.0003504000    0.0496213500    0.0494762300
   0.0000026200   -0.0003135100   -0.0002506000
   0.0000283600    0.0000189900    0.0000144200
  -0.0000288400    0.0000141100    0.0000188600
  -0.0000027500   -0.0002500600   -0.0003096800
  -0.0025568400    0.0023822900    0.0042226700
   0.0025826600    0.0042093100    0.0024000900
   0.0000147800   -0.0000648600   -0.0000414600
  -0.0000002700   -0.0000096900   -0.0000096600
  -0.0000151700   -0.0000415000   -0.0000640400
  -0.0002185100    0.0002609100    0.0006319400
   0.0000001100   -0.0001491200   -0.0001487800
   0.0002191100    0.0006314400    0.0002624400
   0.0001437100   -0.0001710900    0.0000630300
  -0.0001437300    0.0000613800   -0.0001701500
   0.0001029400   -0.0000604500    0.0003101100
   0.0000068900   -0.0000389600   -0.0000241700
  -0.0000072600   -0.0000242900   -0.0000387600
  -0.0001043300    0.0003082900   -0.0000611000
   0.0000225200   -0.0007177000   -0.0006843600
   0.0011744800   -0.0013517800    0.0004797200
  -0.0000808100   -0.0000600900   -0.0000667300
  -0.0000000800   -0.0000459400   -0.0000458900
   0.0000811200   -0.0000691500   -0.0000597000
  -0.0011827500    0.0004557100   -0.0013624400
  -0.0324411600    0.0817153000    0.0817152900
   0.0037461000    0.0012427000    0.0012426800
   0.0003218600    0.0001595900    0.0001595700
  -0.0003229700    0.0001564500    0.0001564500
  -0.0037492500    0.0011824500    0.0011824400
   0.0278796200    0.0776544100    0.0776544100
