432  
1    

1    
 -0.0070710678118655   0.0000000000000000   0.0070710678118655
   0.0906237300    0.0015543100   -0.0906237300
  -0.0025009600   -0.0014040800    0.0025009500
  -0.0000773200   -0.0002975600    0.0000773100
  -0.0000467400   -0.0000010700    0.0000467200
  -0.0000755100    0.0002942500    0.0000754700
  -0.0024654600    0.0013953100    0.0024654400
   0.0036062800    0.0019267500    0.0019575000
  -0.0001824900   -0.0000933700    0.0000180300
  -0.0000084200   -0.0000067100    0.0000161400
  -0.0000161200    0.0000074200    0.0000088700
  -0.0000186300    0.0000947000    0.0001815800
  -0.0019624500   -0.0019191000   -0.0036076000
   0.0008946000    0.0002333900    0.0001398500
  -0.0000619800   -0.0000475300    0.0000175800
  -0.0000221600    0.0000000300    0.0000222400
  -0.0000175200    0.0000475300    0.0000611900
  -0.0001386900   -0.0002327200   -0.0008953300
  -0.0002762000   -0.0000002300    0.0002759800
   0.0003968800    0.0000534800   -0.0000068100
  -0.0000691700   -0.0000014300    0.0000563600
  -0.0000559700    0.0000014100    0.0000681000
   0.0000066900   -0.0000534800   -0.0003965400
  -0.0000489200    0.0000332400    0.0000758100
  -0.0000758600   -0.0000333200    0.0000489900
   0.0005988700   -0.0000631900   -0.0001569900
  -0.0002770500    0.0000006300    0.0002751600
   0.0001562900    0.0000625100   -0.0005991600
  -0.0000382900    0.0000293200    0.0000406800
  -0.0000221600   -0.0000000000    0.0000221900
  -0.0000408200   -0.0000292800    0.0000384500
   0.0022063500    0.0005254700    0.0005547200
  -0.0005658800   -0.0005208600   -0.0022076200
  -0.0000689600    0.0001455500    0.0001307300
  -0.0000049600    0.0000351200    0.0000197700
  -0.0000195500   -0.0000350600    0.0000052200
  -0.0001309900   -0.0001448800    0.0000701200
  -0.0019575100    0.0019267500   -0.0036062700
  -0.0000180300   -0.0000933700    0.0001824800
  -0.0000161500   -0.0000067200    0.0000084100
  -0.0000088900    0.0000073900    0.0000161100
  -0.0001815800    0.0000947200    0.0000186100
   0.0036075900   -0.0019191100    0.0019624500
   0.0000805000    0.0000660300   -0.0000805000
  -0.0000177200    0.0000017100    0.0000177100
  -0.0000092000    0.0000000700    0.0000092000
  -0.0000173500   -0.0000017300    0.0000173600
   0.0000808300   -0.0000666500   -0.0000808500
  -0.0001328400    0.0000000500    0.0001328400
   0.0000355500    0.0000470200   -0.0000624900
  -0.0000062700    0.0000027100    0.0000064500
  -0.0000064600   -0.0000027900    0.0000061400
   0.0000624200   -0.0000470400   -0.0000356200
  -0.0000375500    0.0000141300    0.0000449600
  -0.0000451100   -0.0000140700    0.0000374800
   0.0000285500    0.0000711500   -0.0000309600
  -0.0000158900   -0.0000002600    0.0000157500
   0.0000308400   -0.0000710200   -0.0000285000
  -0.0000113600   -0.0000023700    0.0000186500
  -0.0000201700    0.0000000400    0.0000201000
  -0.0000187200    0.0000024200    0.0000113300
  -0.0000129600    0.0002621000   -0.0000479200
   0.0000481000   -0.0002633200    0.0000137600
  -0.0000201100   -0.0000013000    0.0000294200
  -0.0000115600    0.0000012000    0.0000189700
  -0.0000190500   -0.0000010700    0.0000115200
  -0.0000296100    0.0000015400    0.0000200800
  -0.0000350200    0.0000048600    0.0000391200
  -0.0000236300   -0.0000006200    0.0001325300
  -0.0000060400    0.0000155700    0.0000387900
  -0.0000137800    0.0000000400    0.0000136800
  -0.0000390700   -0.0000154600    0.0000059300
  -0.0001331300   -0.0000006200    0.0000232400
  -0.0001398400    0.0002333800   -0.0008945700
  -0.0000175900   -0.0000475400    0.0000619500
  -0.0000222600    0.0000000200    0.0000221600
  -0.0000611800    0.0000475100    0.0000175200
   0.0008953600   -0.0002327100    0.0001386800
  -0.0002759900   -0.0000002400    0.0002762200
   0.0000624900    0.0000470200   -0.0000355500
  -0.0000064500    0.0000027200    0.0000062800
  -0.0000061300   -0.0000027800    0.0000064300
   0.0000356000   -0.0000470400   -0.0000624100
  -0.0000449600    0.0000141100    0.0000375700
  -0.0000374700   -0.0000140600    0.0000451000
   0.0000280200    0.0000502200   -0.0000280200
  -0.0000036900   -0.0000001000    0.0000036900
   0.0000280000   -0.0000501700   -0.0000279700
  -0.0000145700   -0.0000032900    0.0000145700
  -0.0000230600    0.0000000400    0.0000230700
  -0.0000145700    0.0000033400    0.0000145700
   0.0000150500    0.0000969700   -0.0000295300
   0.0000294200   -0.0000973600   -0.0000148000
  -0.0000069100   -0.0000057300    0.0000144200
  -0.0000116200   -0.0000009300    0.0000158200
  -0.0000158200    0.0000009700    0.0000116200
  -0.0000144100    0.0000058100    0.0000069100
   0.0000934100    0.0000008200   -0.0000941700
  -0.0000108000   -0.0000080200    0.0000437900
  -0.0000087100   -0.0000000100    0.0000230900
  -0.0000126000    0.0000000200    0.0000125700
  -0.0000231100    0.0000000600    0.0000086900
  -0.0000435800    0.0000078200    0.0000107000
   0.0000994800    0.0002114200    0.0000644000
   0.0000033200   -0.0000062700    0.0000529700
  -0.0000102600    0.0000001600    0.0000203000
  -0.0000203800   -0.0000001800    0.0000102200
  -0.0000529400    0.0000060200   -0.0000034100
  -0.0000646800   -0.0002117100   -0.0000988200
   0.0000068000    0.0000534800   -0.0003968700
  -0.0000563700   -0.0000014200    0.0000691700
  -0.0000680900    0.0000014200    0.0000559600
   0.0003965200   -0.0000534500   -0.0000066900
  -0.0000758000    0.0000332400    0.0000489300
  -0.0000490000   -0.0000333200    0.0000758700
   0.0000309200    0.0000711500   -0.0000285500
  -0.0000157300   -0.0000002700    0.0000158900
   0.0000284900   -0.0000710300   -0.0000308700
  -0.0000186600   -0.0000023600    0.0000113400
  -0.0000201100    0.0000000400    0.0000201500
  -0.0000113100    0.0000024100    0.0000187100
   0.0000295200    0.0000969600   -0.0000150400
   0.0000148200   -0.0000973500   -0.0000294200
  -0.0000144100   -0.0000057300    0.0000069400
  -0.0000158200   -0.0000009300    0.0000116300
  -0.0000116100    0.0000009800    0.0000158200
  -0.0000069100    0.0000058100    0.0000144100
   0.0000602200    0.0000005200   -0.0000602200
  -0.0000081900   -0.0000008300    0.0000081800
  -0.0000114200    0.0000006900    0.0000114200
  -0.0000123700    0.0000000300    0.0000123500
  -0.0000114000   -0.0000006500    0.0000114100
  -0.0000081000    0.0000007700    0.0000081200
   0.0000185400    0.0000835300   -0.0000260300
  -0.0000056200    0.0000044100    0.0000157400
  -0.0000123800    0.0000002100    0.0000151500
  -0.0000151600   -0.0000002000    0.0000123800
  -0.0000156500   -0.0000044900    0.0000055700
   0.0000258700   -0.0000835800   -0.0000184100
   0.0000518100    0.0000749600   -0.0000077700
  -0.0000105800    0.0000031500    0.0000194800
  -0.0000202100   -0.0000000400    0.0000201400
  -0.0000194800   -0.0000032500    0.0000104600
   0.0000076400   -0.0000749000   -0.0000516800
  -0.0000158100   -0.0000000800    0.0000158700
   0.0001569900   -0.0000632000   -0.0005988800
  -0.0002751700    0.0000006400    0.0002770200
   0.0005991500    0.0000625100   -0.0001563000
  -0.0000406700    0.0000293200    0.0000382800
  -0.0000221900    0.0000000200    0.0000221500
  -0.0000384500   -0.0000293000    0.0000408100
   0.0000479400    0.0002620700    0.0000129800
  -0.0000137500   -0.0002633300   -0.0000481000
  -0.0000294700   -0.0000013200    0.0000201100
  -0.0000189700    0.0000011900    0.0000115300
  -0.0000115000   -0.0000010700    0.0000190300
  -0.0000201000    0.0000015500    0.0000296200
   0.0000941700    0.0000008200   -0.0000934200
  -0.0000437800   -0.0000080200    0.0000107900
  -0.0000230900   -0.0000000000    0.0000087200
  -0.0000125700    0.0000000400    0.0000125800
  -0.0000086900    0.0000000700    0.0000231100
  -0.0000107000    0.0000078400    0.0000435900
   0.0000260500    0.0000835200   -0.0000185200
  -0.0000157600    0.0000043900    0.0000056300
  -0.0000151600    0.0000002100    0.0000123900
  -0.0000123700   -0.0000001900    0.0000151500
  -0.0000055700   -0.0000044800    0.0000156500
   0.0000184000   -0.0000835800   -0.0000258800
   0.0000280500    0.0000502100   -0.0000280700
  -0.0000146400    0.0000059200    0.0000146200
  -0.0000231100    0.0000000200    0.0000231100
  -0.0000145100   -0.0000059400    0.0000145100
   0.0000280200   -0.0000502000   -0.0000280200
  -0.0000037000   -0.0000000300    0.0000037000
   0.0000552800    0.0000569400   -0.0000428000
  -0.0000453100    0.0000092800    0.0000374300
  -0.0000374600   -0.0000094200    0.0000448900
   0.0000427800   -0.0000567500   -0.0000552500
  -0.0000061900   -0.0000027400    0.0000064200
  -0.0000064500    0.0000027400    0.0000062200
  -0.0005547300    0.0005254600   -0.0022063500
   0.0022076000   -0.0005208600    0.0005658700
  -0.0001307200    0.0001455400    0.0000689400
  -0.0000197800    0.0000351200    0.0000049800
  -0.0000052000   -0.0000350600    0.0000195300
  -0.0000701400   -0.0001448900    0.0001310100
  -0.0000391200    0.0000048600    0.0000350200
  -0.0001325300   -0.0000006300    0.0000236500
  -0.0000388100    0.0000155700    0.0000060500
  -0.0000136800    0.0000000100    0.0000137700
  -0.0000059400   -0.0000154500    0.0000391000
  -0.0000232300   -0.0000006100    0.0001331400
  -0.0000644100    0.0002114100   -0.0000994900
  -0.0000529700   -0.0000062800   -0.0000033200
  -0.0000203000    0.0000001600    0.0000102800
  -0.0000102100   -0.0000001800    0.0000204000
   0.0000034000    0.0000060200    0.0000529600
   0.0000988300   -0.0002117200    0.0000646600
   0.0000077800    0.0000749500   -0.0000518000
  -0.0000194800    0.0000031400    0.0000106000
  -0.0000201500   -0.0000000200    0.0000202200
  -0.0000104800   -0.0000032500    0.0000194800
   0.0000516800   -0.0000749000   -0.0000076400
  -0.0000158700   -0.0000000800    0.0000157800
   0.0000428200    0.0000569300   -0.0000552600
  -0.0000374300    0.0000092600    0.0000453000
  -0.0000448900   -0.0000094400    0.0000374700
   0.0000552500   -0.0000567600   -0.0000427700
  -0.0000064200   -0.0000027400    0.0000061800
  -0.0000062100    0.0000027400    0.0000064500
   0.0000805200    0.0001690900   -0.0000805100
  -0.0001328300   -0.0000006500    0.0001328500
   0.0000808800   -0.0001682900   -0.0000808800
  -0.0000174400   -0.0000015800    0.0000174300
  -0.0000091700    0.0000000500    0.0000091700
  -0.0000175800    0.0000017600    0.0000175800
   0.0000438900    0.0000038900   -0.0000438700
   0.0000087700   -0.0000006100   -0.0000087600
   0.0000087900    0.0000005000   -0.0000087900
   0.0000434500   -0.0000039200   -0.0000434200
  -0.0000516100    0.0003483900    0.0000516000
  -0.0000525300   -0.0003481700    0.0000525300
   0.0000138500    0.0000016100   -0.0000109800
   0.0000063300   -0.0000000400   -0.0000062900
   0.0000109200   -0.0000016100   -0.0000136400
  -0.0001020300    0.0000931900    0.0000150800
   0.0000642700   -0.0000001800   -0.0000640000
  -0.0000146400   -0.0000934100    0.0001021900
   0.0000132300    0.0000022100   -0.0000104200
   0.0000103600   -0.0000021200   -0.0000131400
  -0.0000438000    0.0000550900    0.0000208700
   0.0000148500    0.0000102300   -0.0000225400
   0.0000226600   -0.0000103000   -0.0000147700
  -0.0000207200   -0.0000552600    0.0000439400
   0.0000475200    0.0000003400   -0.0000476300
  -0.0000595000    0.0000930400    0.0000150900
   0.0000022500    0.0000057700   -0.0000180800
   0.0000131600   -0.0000000300   -0.0000130900
   0.0000181600   -0.0000058000   -0.0000022000
  -0.0000149600   -0.0000932800    0.0000595900
  -0.0001448800    0.0004388600   -0.0000371900
  -0.0000094000   -0.0000019600   -0.0000620300
   0.0000125700   -0.0000045500   -0.0000205000
   0.0000206800    0.0000044300   -0.0000124400
   0.0000624800    0.0000017400    0.0000096000
   0.0000380100   -0.0004370000    0.0001468800
   0.0002034300    0.0000887300   -0.0003876500
   0.0000339100   -0.0000009000    0.0000091600
   0.0000114400   -0.0000003800   -0.0000111800
  -0.0000087300   -0.0000005900   -0.0000335700
   0.0003841100   -0.0000906300   -0.0002013300
  -0.0071613900   -0.0001142400    0.0073032600
   0.0000109700    0.0000016200   -0.0000138500
   0.0000062800   -0.0000000400   -0.0000063200
   0.0000136300   -0.0000016100   -0.0000109100
  -0.0000150800    0.0000932100    0.0001020500
   0.0000639900   -0.0000001900   -0.0000642700
  -0.0001021700   -0.0000934000    0.0000146500
   0.0000052400   -0.0000010600   -0.0000052200
   0.0000051700    0.0000011600   -0.0000051800
  -0.0000442200    0.0000325900    0.0000442300
   0.0000364700    0.0000099200   -0.0000364600
   0.0000364500   -0.0000099300   -0.0000364400
  -0.0000442100   -0.0000326100    0.0000442300
   0.0000125700    0.0000001300   -0.0000125400
  -0.0000244400    0.0000458400    0.0000309000
   0.0000055200    0.0000074400   -0.0000148600
   0.0000208000   -0.0000000100   -0.0000208000
   0.0000148600   -0.0000074700   -0.0000055000
  -0.0000309800   -0.0000459200    0.0000244100
  -0.0000053500    0.0001475400    0.0000480800
  -0.0000033000    0.0000020300   -0.0000286100
   0.0000097100   -0.0000013000   -0.0000195200
   0.0000195200    0.0000012600   -0.0000097000
   0.0000286100   -0.0000021700    0.0000032600
  -0.0000483700   -0.0001468700    0.0000056900
   0.0000103700    0.0000182000   -0.0000820600
   0.0000066300   -0.0000078600   -0.0000384600
   0.0000129900   -0.0000000000   -0.0000129600
   0.0000385900    0.0000078400   -0.0000066700
   0.0000820800   -0.0000176600   -0.0000101700
   0.0000249000   -0.0000008100   -0.0000249000
   0.0000879600    0.0000540000   -0.0001329900
   0.0000081800    0.0000132600   -0.0000015800
   0.0000017500   -0.0000132900   -0.0000081900
   0.0001316900   -0.0000537800   -0.0000876100
  -0.0016145900   -0.0005007400    0.0004769000
  -0.0004789500    0.0005048900    0.0016101400
   0.0000104100    0.0000022000   -0.0000132500
   0.0000131100   -0.0000021200   -0.0000103200
  -0.0000208500    0.0000551000    0.0000438000
   0.0000225500    0.0000102300   -0.0000148100
   0.0000147800   -0.0000103000   -0.0000226700
  -0.0000439300   -0.0000552400    0.0000207100
   0.0000125300    0.0000001200   -0.0000125500
  -0.0000309000    0.0000458300    0.0000244100
   0.0000148700    0.0000074400   -0.0000055100
   0.0000208000   -0.0000000300   -0.0000208100
   0.0000055000   -0.0000074700   -0.0000148600
  -0.0000244200   -0.0000459300    0.0000309600
  -0.0000187100    0.0000804200    0.0000187100
   0.0000036700    0.0000055500   -0.0000036600
   0.0000136100    0.0000001300   -0.0000136100
   0.0000136100   -0.0000001700   -0.0000136000
   0.0000036400   -0.0000056400   -0.0000036500
  -0.0000188700   -0.0000800800    0.0000188600
   0.0000043900    0.0000079600   -0.0000125100
   0.0000071000   -0.0000039000   -0.0000169400
   0.0000137700   -0.0000000100   -0.0000137500
   0.0000169200    0.0000038500   -0.0000070800
   0.0000124000   -0.0000078400   -0.0000043200
  -0.0000506300   -0.0000005800    0.0000504000
   0.0000146800   -0.0000022800   -0.0000305400
   0.0000111500   -0.0000018500   -0.0000204000
   0.0000205000    0.0000018700   -0.0000110800
   0.0000305000    0.0000024500   -0.0000145400
  -0.0000202200    0.0001520100    0.0000301700
  -0.0000302800   -0.0001519200    0.0000208500
   0.0000364500    0.0000251900   -0.0000598800
   0.0000150100   -0.0000000900   -0.0000148900
   0.0000590500   -0.0000249900   -0.0000362900
  -0.0005229700   -0.0000330900    0.0000835500
   0.0001314900    0.0000000700   -0.0001313700
  -0.0000839000    0.0000333200    0.0005231100
   0.0000476000    0.0000003300   -0.0000475300
  -0.0000151000    0.0000930500    0.0000595200
   0.0000180900    0.0000057400   -0.0000022500
   0.0000130600   -0.0000000300   -0.0000131200
   0.0000022100   -0.0000057900   -0.0000181500
  -0.0000595700   -0.0000932800    0.0000149300
  -0.0000480700    0.0001475400    0.0000053600
   0.0000286300    0.0000020300    0.0000032700
   0.0000195300   -0.0000013100   -0.0000097000
   0.0000096800    0.0000012600   -0.0000195100
  -0.0000032800   -0.0000021700   -0.0000285900
  -0.0000056900   -0.0001468700    0.0000483600
   0.0000124900    0.0000079700   -0.0000044000
   0.0000169300   -0.0000039100   -0.0000070900
   0.0000137500   -0.0000000100   -0.0000137600
   0.0000070900    0.0000038600   -0.0000169300
   0.0000043300   -0.0000078500   -0.0000124000
  -0.0000504100   -0.0000005800    0.0000506400
   0.0000097800   -0.0000033400   -0.0000097800
   0.0000156700   -0.0000026100   -0.0000156400
   0.0000156500    0.0000026200   -0.0000156600
   0.0000096900    0.0000034000   -0.0000097000
  -0.0000279700    0.0000663100    0.0000279700
  -0.0000280100   -0.0000663800    0.0000280100
   0.0000183500    0.0000021800   -0.0000260200
   0.0000307800   -0.0000000200   -0.0000305900
   0.0000260500   -0.0000020600   -0.0000180900
  -0.0000348500    0.0000686500    0.0000257300
  -0.0000058400    0.0000000100    0.0000058600
  -0.0000256900   -0.0000685800    0.0000350600
   0.0000450400    0.0000540800   -0.0001331100
   0.0001312700   -0.0000539700   -0.0000448500
  -0.0004178900    0.0000714400   -0.0000210100
   0.0000314200    0.0000022500   -0.0000406400
   0.0000406100   -0.0000023200   -0.0000313100
   0.0000215200   -0.0000721000    0.0004182200
   0.0000371900    0.0004388500    0.0001448900
   0.0000620400   -0.0000019500    0.0000093900
   0.0000205100   -0.0000045200   -0.0000125700
   0.0000124100    0.0000044400   -0.0000206500
  -0.0000095900    0.0000017500   -0.0000625000
  -0.0001468800   -0.0004370200   -0.0000380100
   0.0000820600    0.0000181900   -0.0000103600
   0.0000384700   -0.0000078500   -0.0000066500
   0.0000129400    0.0000000000   -0.0000130000
   0.0000066500    0.0000078600   -0.0000386200
   0.0000102000   -0.0000176800   -0.0000820700
   0.0000249000   -0.0000008200   -0.0000249100
   0.0000305300   -0.0000022800   -0.0000146900
   0.0000204100   -0.0000018300   -0.0000111400
   0.0000110700    0.0000018600   -0.0000205100
   0.0000145500    0.0000024300   -0.0000305100
  -0.0000301700    0.0001520100    0.0000202300
  -0.0000208400   -0.0001519100    0.0000302800
   0.0000260300    0.0000021700   -0.0000183600
   0.0000306100   -0.0000000300   -0.0000307700
   0.0000180900   -0.0000020600   -0.0000260500
  -0.0000257200    0.0000686500    0.0000348400
  -0.0000058600   -0.0000000100    0.0000058300
  -0.0000350800   -0.0000685600    0.0000256900
   0.0000803800    0.0000197500   -0.0000803600
   0.0000800600   -0.0000197800   -0.0000800500
  -0.0000985000    0.0000739000    0.0000985100
  -0.0000073800   -0.0000015400    0.0000073900
  -0.0000073000    0.0000014500    0.0000073000
  -0.0000985800   -0.0000740100    0.0000985600
   0.0004703900    0.0000040600   -0.0004807200
  -0.0008971100    0.0002131500   -0.0002366700
   0.0000532800   -0.0000777400   -0.0000438000
   0.0000429200    0.0000001200   -0.0000428600
   0.0000436400    0.0000782600   -0.0000535600
   0.0002390600   -0.0002128100    0.0008957500
   0.0003876800    0.0000887200   -0.0002034100
  -0.0000091600   -0.0000009100   -0.0000339100
   0.0000111800   -0.0000003900   -0.0000114300
   0.0000336000   -0.0000006000    0.0000087400
   0.0002013500   -0.0000906500   -0.0003841200
  -0.0073032600   -0.0001142500    0.0071613800
   0.0001329900    0.0000540200   -0.0000879800
   0.0000016000    0.0000132600   -0.0000081900
   0.0000081900   -0.0000133100   -0.0000017400
   0.0000876000   -0.0000537800   -0.0001317000
  -0.0004768900   -0.0005007300    0.0016145900
  -0.0016101600    0.0005049000    0.0004789500
   0.0000598800    0.0000251600   -0.0000364600
   0.0000148900   -0.0000000900   -0.0000150200
   0.0000363200   -0.0000250100   -0.0000590400
  -0.0000835600   -0.0000331100    0.0005229500
   0.0001313900    0.0000000700   -0.0001314600
  -0.0005231200    0.0000333300    0.0000838800
   0.0001331100    0.0000540900   -0.0000450300
   0.0000448500   -0.0000539700   -0.0001312600
   0.0000210100    0.0000714600    0.0004179000
   0.0000406400    0.0000022600   -0.0000314400
   0.0000313100   -0.0000023100   -0.0000406000
  -0.0004182300   -0.0000720800   -0.0000214900
   0.0004807400    0.0000040400   -0.0004703800
   0.0002366700    0.0002131600    0.0008971300
   0.0000438000   -0.0000777300   -0.0000532600
   0.0000428700    0.0000001200   -0.0000429500
   0.0000535600    0.0000782700   -0.0000436500
  -0.0008957400   -0.0002128100   -0.0002390800
  -0.0374531000   -0.0304023400    0.0374530900
  -0.0002697600    0.0007175000    0.0002697700
  -0.0000124100    0.0001060900    0.0000124000
  -0.0000114900   -0.0001038400    0.0000115200
  -0.0002601600   -0.0007141400    0.0002601800
  -0.0364395200    0.0290349500    0.0364395300
